<?xml version="1.0" encoding="UTF-8"?>

<!-- generated on Mon Dec 10 17:08:03 2018 by Eclipse SUMO Version v1_0_1+0999-ba34606b5d
<configuration xmlns:xsi="http://www.w3.org/2001/XMLSchema-instance" xsi:noNamespaceSchemaLocation="http://sumo.dlr.de/xsd/sumoConfiguration.xsd">

    <input>
        <net-file value="Chj_final.net.xml"/>
        <route-files value="Chj_Dynamic.rou.xml"/>
        <additional-files value="loops.xml"/>
    </input>

    <output>
        <queue-output value="queue.xml"/>
        <summary-output value="summary.xml"/>
        <tripinfo-output value="tripinfo.xml"/>
    </output>

    <time>
        <begin value="0"/>
        <end value="3600"/>
    </time>

    <report>
        <xml-validation value="never"/>
        <duration-log.disable value="true"/>
        <no-step-log value="true"/>
    </report>

    <traci_server>
        <remote-port value="35179"/>
    </traci_server>

    <random_number>
        <seed value="34"/>
    </random_number>

</configuration>
-->

<queue-export xmlns:xsi="http://www.w3.org/2001/XMLSchema-instance" xsi:noNamespaceSchemaLocation="http://sumo.dlr.de/xsd/queue_file.xsd">
    <data timestep="0.00">
        <lanes/>
    </data>
    <data timestep="1.00">
        <lanes/>
    </data>
    <data timestep="2.00">
        <lanes/>
    </data>
    <data timestep="3.00">
        <lanes/>
    </data>
    <data timestep="4.00">
        <lanes/>
    </data>
    <data timestep="5.00">
        <lanes/>
    </data>
    <data timestep="6.00">
        <lanes/>
    </data>
    <data timestep="7.00">
        <lanes/>
    </data>
    <data timestep="8.00">
        <lanes/>
    </data>
    <data timestep="9.00">
        <lanes/>
    </data>
    <data timestep="10.00">
        <lanes/>
    </data>
    <data timestep="11.00">
        <lanes/>
    </data>
    <data timestep="12.00">
        <lanes/>
    </data>
    <data timestep="13.00">
        <lanes/>
    </data>
    <data timestep="14.00">
        <lanes/>
    </data>
    <data timestep="15.00">
        <lanes/>
    </data>
    <data timestep="16.00">
        <lanes/>
    </data>
    <data timestep="17.00">
        <lanes/>
    </data>
    <data timestep="18.00">
        <lanes/>
    </data>
    <data timestep="19.00">
        <lanes/>
    </data>
    <data timestep="20.00">
        <lanes/>
    </data>
    <data timestep="21.00">
        <lanes/>
    </data>
    <data timestep="22.00">
        <lanes/>
    </data>
    <data timestep="23.00">
        <lanes/>
    </data>
    <data timestep="24.00">
        <lanes/>
    </data>
    <data timestep="25.00">
        <lanes/>
    </data>
    <data timestep="26.00">
        <lanes/>
    </data>
    <data timestep="27.00">
        <lanes>
            <lane id="OrigionW9_0" queueing_time="0.00" queueing_length="0.00" queueing_length_experimental="5.00"/>
        </lanes>
    </data>
    <data timestep="28.00">
        <lanes>
            <lane id="OrigionW9_0" queueing_time="1.00" queueing_length="5.00" queueing_length_experimental="5.00"/>
            <lane id="240833369#4_0" queueing_time="0.00" queueing_length="0.00" queueing_length_experimental="6.20"/>
        </lanes>
    </data>
    <data timestep="29.00">
        <lanes>
            <lane id="OrigionW9_0" queueing_time="2.00" queueing_length="5.00" queueing_length_experimental="5.00"/>
            <lane id="240833369#4_0" queueing_time="0.00" queueing_length="0.00" queueing_length_experimental="6.08"/>
        </lanes>
    </data>
    <data timestep="30.00">
        <lanes>
            <lane id="OrigionW9_0" queueing_time="3.00" queueing_length="5.00" queueing_length_experimental="5.00"/>
            <lane id="240833369#4_0" queueing_time="1.00" queueing_length="6.04" queueing_length_experimental="13.75"/>
        </lanes>
    </data>
    <data timestep="31.00">
        <lanes>
            <lane id="OrigionW9_0" queueing_time="4.00" queueing_length="5.00" queueing_length_experimental="5.00"/>
            <lane id="240833369#4_0" queueing_time="2.00" queueing_length="6.02" queueing_length_experimental="13.60"/>
        </lanes>
    </data>
    <data timestep="32.00">
        <lanes>
            <lane id="OrigionW9_0" queueing_time="5.00" queueing_length="5.00" queueing_length_experimental="5.00"/>
            <lane id="240833369#4_0" queueing_time="3.00" queueing_length="13.52" queueing_length_experimental="21.39"/>
        </lanes>
    </data>
    <data timestep="33.00">
        <lanes>
            <lane id="OrigionW9_0" queueing_time="6.00" queueing_length="5.00" queueing_length_experimental="12.54"/>
            <lane id="240833369#4_0" queueing_time="4.00" queueing_length="13.51" queueing_length_experimental="21.03"/>
            <lane id="OrigionN2_0" queueing_time="0.00" queueing_length="0.00" queueing_length_experimental="6.08"/>
        </lanes>
    </data>
    <data timestep="34.00">
        <lanes>
            <lane id="OrigionW9_0" queueing_time="7.00" queueing_length="12.52" queueing_length_experimental="12.52"/>
            <lane id="240833369#4_0" queueing_time="5.00" queueing_length="21.02" queueing_length_experimental="21.02"/>
            <lane id="OrigionN2_0" queueing_time="1.00" queueing_length="6.02" queueing_length_experimental="6.02"/>
        </lanes>
    </data>
    <data timestep="35.00">
        <lanes>
            <lane id="100323308#3_0" queueing_time="0.00" queueing_length="0.00" queueing_length_experimental="6.35"/>
            <lane id="OrigionW9_0" queueing_time="8.00" queueing_length="12.50" queueing_length_experimental="20.36"/>
            <lane id="240833369#4_0" queueing_time="6.00" queueing_length="21.01" queueing_length_experimental="28.70"/>
            <lane id="OrigionN2_0" queueing_time="2.00" queueing_length="6.00" queueing_length_experimental="6.00"/>
        </lanes>
    </data>
    <data timestep="36.00">
        <lanes>
            <lane id="100323308#3_0" queueing_time="0.00" queueing_length="0.00" queueing_length_experimental="6.03"/>
            <lane id="OrigionW9_0" queueing_time="9.00" queueing_length="5.00" queueing_length_experimental="20.03"/>
            <lane id="OrigionW9_1" queueing_time="3.00" queueing_length="12.50" queueing_length_experimental="12.50"/>
            <lane id="240833369#4_0" queueing_time="7.00" queueing_length="21.00" queueing_length_experimental="28.52"/>
            <lane id="OrigionN2_0" queueing_time="3.00" queueing_length="6.00" queueing_length_experimental="6.00"/>
        </lanes>
    </data>
    <data timestep="37.00">
        <lanes>
            <lane id="100323308#3_0" queueing_time="1.00" queueing_length="6.01" queueing_length_experimental="6.01"/>
            <lane id="100323308#3_1" queueing_time="0.00" queueing_length="0.00" queueing_length_experimental="6.03"/>
            <lane id="OrigionW9_0" queueing_time="10.00" queueing_length="5.00" queueing_length_experimental="5.00"/>
            <lane id="240833369#4_0" queueing_time="8.00" queueing_length="28.51" queueing_length_experimental="28.51"/>
            <lane id="OrigionN2_0" queueing_time="4.00" queueing_length="6.00" queueing_length_experimental="6.00"/>
        </lanes>
    </data>
    <data timestep="38.00">
        <lanes>
            <lane id="100323308#3_0" queueing_time="2.00" queueing_length="6.00" queueing_length_experimental="6.00"/>
            <lane id="100323308#3_1" queueing_time="1.00" queueing_length="6.01" queueing_length_experimental="6.01"/>
            <lane id="OrigionW9_0" queueing_time="11.00" queueing_length="5.00" queueing_length_experimental="5.00"/>
            <lane id="240833369#4_0" queueing_time="9.00" queueing_length="28.50" queueing_length_experimental="28.50"/>
            <lane id="OrigionW8_0" queueing_time="0.00" queueing_length="0.00" queueing_length_experimental="6.05"/>
            <lane id="OrigionN2_0" queueing_time="5.00" queueing_length="6.00" queueing_length_experimental="6.00"/>
        </lanes>
    </data>
    <data timestep="39.00">
        <lanes>
            <lane id="100323308#3_0" queueing_time="3.00" queueing_length="6.00" queueing_length_experimental="6.00"/>
            <lane id="100323308#3_1" queueing_time="2.00" queueing_length="6.00" queueing_length_experimental="6.00"/>
            <lane id="135626769#0_0" queueing_time="0.00" queueing_length="0.00" queueing_length_experimental="6.96"/>
            <lane id="OrigionW9_0" queueing_time="12.00" queueing_length="5.00" queueing_length_experimental="13.29"/>
            <lane id="OrigionW9_1" queueing_time="0.00" queueing_length="0.00" queueing_length_experimental="6.36"/>
            <lane id="240833369#4_0" queueing_time="10.00" queueing_length="28.50" queueing_length_experimental="28.50"/>
            <lane id="240833369#4_1" queueing_time="8.00" queueing_length="13.50" queueing_length_experimental="13.50"/>
            <lane id="OrigionW8_0" queueing_time="1.00" queueing_length="6.01" queueing_length_experimental="6.01"/>
            <lane id="OrigionN2_0" queueing_time="6.00" queueing_length="6.00" queueing_length_experimental="6.00"/>
        </lanes>
    </data>
    <data timestep="40.00">
        <lanes>
            <lane id="100323308#3_0" queueing_time="4.00" queueing_length="6.00" queueing_length_experimental="6.00"/>
            <lane id="100323308#3_1" queueing_time="3.00" queueing_length="6.00" queueing_length_experimental="6.00"/>
            <lane id="135626769#0_0" queueing_time="0.00" queueing_length="0.00" queueing_length_experimental="6.41"/>
            <lane id="OrigionW9_0" queueing_time="13.00" queueing_length="5.00" queueing_length_experimental="21.44"/>
            <lane id="OrigionW9_1" queueing_time="0.00" queueing_length="0.00" queueing_length_experimental="6.11"/>
            <lane id="240833369#4_0" queueing_time="11.00" queueing_length="28.50" queueing_length_experimental="28.50"/>
            <lane id="OrigionW8_0" queueing_time="2.00" queueing_length="6.00" queueing_length_experimental="6.00"/>
            <lane id="OrigionN2_0" queueing_time="7.00" queueing_length="6.00" queueing_length_experimental="6.00"/>
        </lanes>
    </data>
    <data timestep="41.00">
        <lanes>
            <lane id="100323308#3_0" queueing_time="5.00" queueing_length="6.00" queueing_length_experimental="6.00"/>
            <lane id="100323308#3_1" queueing_time="4.00" queueing_length="6.00" queueing_length_experimental="13.57"/>
            <lane id="135626769#0_0" queueing_time="0.00" queueing_length="0.00" queueing_length_experimental="6.05"/>
            <lane id="OrigionW9_0" queueing_time="14.00" queueing_length="5.00" queueing_length_experimental="12.58"/>
            <lane id="OrigionW9_1" queueing_time="1.00" queueing_length="6.05" queueing_length_experimental="20.58"/>
            <lane id="240833369#4_0" queueing_time="12.00" queueing_length="6.00" queueing_length_experimental="6.00"/>
            <lane id="OrigionW8_0" queueing_time="3.00" queueing_length="6.00" queueing_length_experimental="6.00"/>
            <lane id="OrigionN2_0" queueing_time="8.00" queueing_length="13.57" queueing_length_experimental="13.57"/>
        </lanes>
    </data>
    <data timestep="42.00">
        <lanes>
            <lane id="-230493745#1_0" queueing_time="0.00" queueing_length="0.00" queueing_length_experimental="7.05"/>
            <lane id="100323308#3_0" queueing_time="6.00" queueing_length="6.00" queueing_length_experimental="6.00"/>
            <lane id="100323308#3_1" queueing_time="5.00" queueing_length="13.51" queueing_length_experimental="13.51"/>
            <lane id="135626769#0_0" queueing_time="1.00" queueing_length="6.01" queueing_length_experimental="6.01"/>
            <lane id="OrigionW9_0" queueing_time="15.00" queueing_length="12.52" queueing_length_experimental="12.52"/>
            <lane id="OrigionW9_1" queueing_time="2.00" queueing_length="6.01" queueing_length_experimental="6.01"/>
            <lane id="240833369#4_0" queueing_time="13.00" queueing_length="6.00" queueing_length_experimental="6.00"/>
            <lane id="OrigionW8_0" queueing_time="4.00" queueing_length="6.00" queueing_length_experimental="6.00"/>
            <lane id="85711505#2_0" queueing_time="1.00" queueing_length="6.09" queueing_length_experimental="6.09"/>
            <lane id="OrigionN2_0" queueing_time="9.00" queueing_length="13.51" queueing_length_experimental="13.51"/>
        </lanes>
    </data>
    <data timestep="43.00">
        <lanes>
            <lane id="-230493745#1_0" queueing_time="0.00" queueing_length="0.00" queueing_length_experimental="6.06"/>
            <lane id="100323308#3_0" queueing_time="7.00" queueing_length="6.00" queueing_length_experimental="6.00"/>
            <lane id="100323308#3_1" queueing_time="6.00" queueing_length="13.50" queueing_length_experimental="13.50"/>
            <lane id="135626769#0_0" queueing_time="2.00" queueing_length="6.00" queueing_length_experimental="6.00"/>
            <lane id="OrigionW9_0" queueing_time="16.00" queueing_length="12.51" queueing_length_experimental="12.51"/>
            <lane id="OrigionW9_1" queueing_time="3.00" queueing_length="6.00" queueing_length_experimental="6.00"/>
            <lane id="240833369#4_0" queueing_time="14.00" queueing_length="6.00" queueing_length_experimental="13.67"/>
            <lane id="240833369#4_1" queueing_time="1.00" queueing_length="6.01" queueing_length_experimental="6.01"/>
            <lane id="OrigionW8_0" queueing_time="5.00" queueing_length="6.00" queueing_length_experimental="13.52"/>
            <lane id="85711505#2_0" queueing_time="2.00" queueing_length="6.01" queueing_length_experimental="13.81"/>
            <lane id="OrigionN2_0" queueing_time="3.00" queueing_length="13.50" queueing_length_experimental="13.50"/>
            <lane id="OrigionW2_0" queueing_time="0.00" queueing_length="0.00" queueing_length_experimental="6.02"/>
        </lanes>
    </data>
    <data timestep="44.00">
        <lanes>
            <lane id="-230493745#1_0" queueing_time="1.00" queueing_length="6.02" queueing_length_experimental="6.02"/>
            <lane id="100323308#3_0" queueing_time="8.00" queueing_length="6.00" queueing_length_experimental="6.00"/>
            <lane id="100323308#3_1" queueing_time="7.00" queueing_length="13.50" queueing_length_experimental="13.50"/>
            <lane id="135626769#0_0" queueing_time="3.00" queueing_length="6.00" queueing_length_experimental="13.70"/>
            <lane id="OrigionW9_0" queueing_time="17.00" queueing_length="12.50" queueing_length_experimental="20.37"/>
            <lane id="OrigionW9_1" queueing_time="4.00" queueing_length="6.00" queueing_length_experimental="13.69"/>
            <lane id="240833369#4_0" queueing_time="15.00" queueing_length="6.00" queueing_length_experimental="21.46"/>
            <lane id="240833369#4_1" queueing_time="2.00" queueing_length="6.00" queueing_length_experimental="6.00"/>
            <lane id="OrigionW8_0" queueing_time="6.00" queueing_length="13.50" queueing_length_experimental="13.50"/>
            <lane id="85711505#2_0" queueing_time="3.00" queueing_length="6.01" queueing_length_experimental="13.64"/>
            <lane id="OrigionW2_0" queueing_time="1.00" queueing_length="6.01" queueing_length_experimental="6.01"/>
        </lanes>
    </data>
    <data timestep="45.00">
        <lanes>
            <lane id="100323308#3_0" queueing_time="9.00" queueing_length="6.00" queueing_length_experimental="6.00"/>
            <lane id="100323308#3_1" queueing_time="8.00" queueing_length="13.50" queueing_length_experimental="13.50"/>
            <lane id="135626769#0_0" queueing_time="4.00" queueing_length="6.00" queueing_length_experimental="13.51"/>
            <lane id="OrigionW9_0" queueing_time="18.00" queueing_length="12.50" queueing_length_experimental="28.84"/>
            <lane id="OrigionW9_1" queueing_time="5.00" queueing_length="6.00" queueing_length_experimental="13.53"/>
            <lane id="240833369#4_0" queueing_time="16.00" queueing_length="13.51" queueing_length_experimental="13.51"/>
            <lane id="240833369#4_1" queueing_time="3.00" queueing_length="6.00" queueing_length_experimental="21.15"/>
            <lane id="OrigionW8_0" queueing_time="7.00" queueing_length="13.50" queueing_length_experimental="13.50"/>
            <lane id="85711505#2_0" queueing_time="4.00" queueing_length="6.00" queueing_length_experimental="13.53"/>
            <lane id="OrigionW2_0" queueing_time="2.00" queueing_length="6.00" queueing_length_experimental="6.00"/>
        </lanes>
    </data>
    <data timestep="46.00">
        <lanes>
            <lane id="100323308#3_0" queueing_time="10.00" queueing_length="6.00" queueing_length_experimental="6.00"/>
            <lane id="100323308#3_1" queueing_time="9.00" queueing_length="13.50" queueing_length_experimental="13.50"/>
            <lane id="135626769#0_0" queueing_time="5.00" queueing_length="13.51" queueing_length_experimental="13.51"/>
            <lane id="OrigionW9_0" queueing_time="19.00" queueing_length="20.00" queueing_length_experimental="20.00"/>
            <lane id="OrigionW9_1" queueing_time="6.00" queueing_length="13.51" queueing_length_experimental="27.58"/>
            <lane id="240833369#4_0" queueing_time="17.00" queueing_length="13.50" queueing_length_experimental="13.50"/>
            <lane id="240833369#4_1" queueing_time="4.00" queueing_length="6.00" queueing_length_experimental="6.00"/>
            <lane id="OrigionW8_0" queueing_time="8.00" queueing_length="13.50" queueing_length_experimental="21.36"/>
            <lane id="85711505#2_0" queueing_time="5.00" queueing_length="13.51" queueing_length_experimental="13.51"/>
            <lane id="OrigionW2_0" queueing_time="3.00" queueing_length="6.00" queueing_length_experimental="6.00"/>
        </lanes>
    </data>
    <data timestep="47.00">
        <lanes>
            <lane id="100323308#3_0" queueing_time="11.00" queueing_length="6.00" queueing_length_experimental="6.00"/>
            <lane id="100323308#3_1" queueing_time="10.00" queueing_length="13.50" queueing_length_experimental="13.50"/>
            <lane id="135626769#0_0" queueing_time="6.00" queueing_length="13.50" queueing_length_experimental="13.50"/>
            <lane id="OrigionW9_0" queueing_time="20.00" queueing_length="20.00" queueing_length_experimental="20.00"/>
            <lane id="OrigionW9_1" queueing_time="7.00" queueing_length="13.50" queueing_length_experimental="13.50"/>
            <lane id="240833369#4_0" queueing_time="18.00" queueing_length="13.50" queueing_length_experimental="13.50"/>
            <lane id="240833369#4_1" queueing_time="5.00" queueing_length="6.00" queueing_length_experimental="6.00"/>
            <lane id="OrigionW8_0" queueing_time="9.00" queueing_length="13.50" queueing_length_experimental="21.18"/>
            <lane id="85711505#2_0" queueing_time="6.00" queueing_length="13.51" queueing_length_experimental="13.51"/>
            <lane id="OrigionW2_0" queueing_time="4.00" queueing_length="6.00" queueing_length_experimental="6.00"/>
        </lanes>
    </data>
    <data timestep="48.00">
        <lanes>
            <lane id="100323308#3_0" queueing_time="12.00" queueing_length="13.52" queueing_length_experimental="13.52"/>
            <lane id="100323308#3_1" queueing_time="11.00" queueing_length="13.50" queueing_length_experimental="13.50"/>
            <lane id="135626769#0_0" queueing_time="7.00" queueing_length="13.50" queueing_length_experimental="21.06"/>
            <lane id="135626776#1_0" queueing_time="0.00" queueing_length="0.00" queueing_length_experimental="6.03"/>
            <lane id="OrigionW9_0" queueing_time="21.00" queueing_length="20.00" queueing_length_experimental="20.00"/>
            <lane id="OrigionW9_1" queueing_time="8.00" queueing_length="13.50" queueing_length_experimental="13.50"/>
            <lane id="240833369#4_0" queueing_time="19.00" queueing_length="13.50" queueing_length_experimental="13.50"/>
            <lane id="240833369#4_1" queueing_time="6.00" queueing_length="6.00" queueing_length_experimental="14.23"/>
            <lane id="OrigionW8_0" queueing_time="10.00" queueing_length="13.50" queueing_length_experimental="21.04"/>
            <lane id="85711505#2_0" queueing_time="7.00" queueing_length="13.50" queueing_length_experimental="13.50"/>
            <lane id="OrigionW2_0" queueing_time="5.00" queueing_length="6.00" queueing_length_experimental="6.00"/>
        </lanes>
    </data>
    <data timestep="49.00">
        <lanes>
            <lane id="100323308#3_0" queueing_time="13.00" queueing_length="13.50" queueing_length_experimental="13.50"/>
            <lane id="100323308#3_1" queueing_time="12.00" queueing_length="13.50" queueing_length_experimental="21.02"/>
            <lane id="135626769#0_0" queueing_time="8.00" queueing_length="21.02" queueing_length_experimental="21.02"/>
            <lane id="135626776#1_0" queueing_time="1.00" queueing_length="6.01" queueing_length_experimental="6.01"/>
            <lane id="OrigionW9_0" queueing_time="22.00" queueing_length="20.00" queueing_length_experimental="27.58"/>
            <lane id="OrigionW9_1" queueing_time="9.00" queueing_length="13.50" queueing_length_experimental="21.28"/>
            <lane id="240833369#4_0" queueing_time="20.00" queueing_length="13.50" queueing_length_experimental="13.50"/>
            <lane id="240833369#4_1" queueing_time="7.00" queueing_length="6.00" queueing_length_experimental="13.50"/>
            <lane id="OrigionW8_0" queueing_time="11.00" queueing_length="21.01" queueing_length_experimental="21.01"/>
            <lane id="85711505#2_0" queueing_time="8.00" queueing_length="13.50" queueing_length_experimental="13.50"/>
            <lane id="OrigionW2_0" queueing_time="6.00" queueing_length="6.00" queueing_length_experimental="6.00"/>
        </lanes>
    </data>
    <data timestep="50.00">
        <lanes>
            <lane id="-230491007_0" queueing_time="0.00" queueing_length="0.00" queueing_length_experimental="6.42"/>
            <lane id="100323308#3_0" queueing_time="14.00" queueing_length="13.50" queueing_length_experimental="13.50"/>
            <lane id="100323308#3_1" queueing_time="13.00" queueing_length="21.00" queueing_length_experimental="21.00"/>
            <lane id="135626769#0_0" queueing_time="9.00" queueing_length="21.00" queueing_length_experimental="21.00"/>
            <lane id="135626776#1_0" queueing_time="2.00" queueing_length="6.00" queueing_length_experimental="6.00"/>
            <lane id="OrigionW9_0" queueing_time="23.00" queueing_length="27.53" queueing_length_experimental="27.53"/>
            <lane id="OrigionW9_1" queueing_time="10.00" queueing_length="13.50" queueing_length_experimental="21.11"/>
            <lane id="240833369#4_0" queueing_time="21.00" queueing_length="13.50" queueing_length_experimental="13.50"/>
            <lane id="240833369#4_1" queueing_time="8.00" queueing_length="13.50" queueing_length_experimental="13.50"/>
            <lane id="OrigionW8_0" queueing_time="12.00" queueing_length="21.00" queueing_length_experimental="21.00"/>
            <lane id="85711505#2_0" queueing_time="9.00" queueing_length="21.02" queueing_length_experimental="21.02"/>
            <lane id="OrigionW2_0" queueing_time="7.00" queueing_length="6.00" queueing_length_experimental="6.00"/>
        </lanes>
    </data>
    <data timestep="51.00">
        <lanes>
            <lane id="-230491007_0" queueing_time="0.00" queueing_length="0.00" queueing_length_experimental="6.06"/>
            <lane id="100323308#3_0" queueing_time="4.00" queueing_length="13.50" queueing_length_experimental="13.50"/>
            <lane id="100323308#3_1" queueing_time="10.00" queueing_length="21.00" queueing_length_experimental="21.00"/>
            <lane id="135626769#0_0" queueing_time="10.00" queueing_length="21.00" queueing_length_experimental="21.00"/>
            <lane id="OrigionW9_0" queueing_time="24.00" queueing_length="27.51" queueing_length_experimental="27.51"/>
            <lane id="OrigionW9_1" queueing_time="11.00" queueing_length="21.04" queueing_length_experimental="35.31"/>
            <lane id="240833369#4_0" queueing_time="22.00" queueing_length="13.50" queueing_length_experimental="13.50"/>
            <lane id="240833369#4_1" queueing_time="9.00" queueing_length="13.50" queueing_length_experimental="13.50"/>
            <lane id="OrigionW8_0" queueing_time="13.00" queueing_length="21.00" queueing_length_experimental="28.52"/>
            <lane id="85711505#2_0" queueing_time="10.00" queueing_length="21.01" queueing_length_experimental="21.01"/>
            <lane id="OrigionW2_0" queueing_time="8.00" queueing_length="6.00" queueing_length_experimental="6.00"/>
        </lanes>
    </data>
    <data timestep="52.00">
        <lanes>
            <lane id="-230491007_0" queueing_time="1.00" queueing_length="6.02" queueing_length_experimental="6.02"/>
            <lane id="-69555386#1_0" queueing_time="0.00" queueing_length="0.00" queueing_length_experimental="5.00"/>
            <lane id="100323308#3_1" queueing_time="3.00" queueing_length="21.00" queueing_length_experimental="21.00"/>
            <lane id="135626769#0_0" queueing_time="11.00" queueing_length="21.00" queueing_length_experimental="28.61"/>
            <lane id="OrigionW9_0" queueing_time="25.00" queueing_length="27.50" queueing_length_experimental="27.50"/>
            <lane id="OrigionW9_1" queueing_time="12.00" queueing_length="21.01" queueing_length_experimental="21.01"/>
            <lane id="240833369#4_0" queueing_time="23.00" queueing_length="13.50" queueing_length_experimental="13.50"/>
            <lane id="240833369#4_1" queueing_time="10.00" queueing_length="13.50" queueing_length_experimental="13.50"/>
            <lane id="OrigionW8_0" queueing_time="14.00" queueing_length="28.51" queueing_length_experimental="28.51"/>
            <lane id="38866846#2_0" queueing_time="1.00" queueing_length="6.00" queueing_length_experimental="6.00"/>
            <lane id="85711505#2_0" queueing_time="11.00" queueing_length="21.00" queueing_length_experimental="21.00"/>
            <lane id="OrigionW2_0" queueing_time="9.00" queueing_length="6.00" queueing_length_experimental="6.00"/>
        </lanes>
    </data>
    <data timestep="53.00">
        <lanes>
            <lane id="-230491007_0" queueing_time="2.00" queueing_length="6.00" queueing_length_experimental="6.00"/>
            <lane id="-69555386#1_0" queueing_time="1.00" queueing_length="5.00" queueing_length_experimental="5.00"/>
            <lane id="135626769#0_0" queueing_time="12.00" queueing_length="28.55" queueing_length_experimental="28.55"/>
            <lane id="230239443#0_0" queueing_time="1.00" queueing_length="6.00" queueing_length_experimental="6.00"/>
            <lane id="OrigionW9_0" queueing_time="26.00" queueing_length="27.50" queueing_length_experimental="27.50"/>
            <lane id="OrigionW9_1" queueing_time="13.00" queueing_length="21.01" queueing_length_experimental="21.01"/>
            <lane id="240833369#4_0" queueing_time="24.00" queueing_length="13.50" queueing_length_experimental="13.50"/>
            <lane id="240833369#4_1" queueing_time="11.00" queueing_length="13.50" queueing_length_experimental="13.50"/>
            <lane id="OrigionW8_0" queueing_time="15.00" queueing_length="28.50" queueing_length_experimental="28.50"/>
            <lane id="38866846#2_0" queueing_time="2.00" queueing_length="6.00" queueing_length_experimental="6.00"/>
            <lane id="85711505#2_0" queueing_time="12.00" queueing_length="21.00" queueing_length_experimental="21.00"/>
            <lane id="OrigionE3_0" queueing_time="0.00" queueing_length="0.00" queueing_length_experimental="6.05"/>
            <lane id="OrigionW2_0" queueing_time="10.00" queueing_length="6.00" queueing_length_experimental="6.00"/>
        </lanes>
    </data>
    <data timestep="54.00">
        <lanes>
            <lane id="-230491007_0" queueing_time="3.00" queueing_length="6.00" queueing_length_experimental="6.00"/>
            <lane id="-69555386#1_0" queueing_time="2.00" queueing_length="5.00" queueing_length_experimental="5.00"/>
            <lane id="135626769#0_0" queueing_time="13.00" queueing_length="28.53" queueing_length_experimental="28.53"/>
            <lane id="230239443#0_0" queueing_time="2.00" queueing_length="6.00" queueing_length_experimental="6.00"/>
            <lane id="OrigionW9_0" queueing_time="27.00" queueing_length="27.50" queueing_length_experimental="35.19"/>
            <lane id="OrigionW9_1" queueing_time="14.00" queueing_length="21.00" queueing_length_experimental="28.61"/>
            <lane id="240833369#4_0" queueing_time="25.00" queueing_length="13.50" queueing_length_experimental="13.50"/>
            <lane id="240833369#4_1" queueing_time="12.00" queueing_length="13.50" queueing_length_experimental="13.50"/>
            <lane id="OrigionW8_0" queueing_time="16.00" queueing_length="28.50" queueing_length_experimental="36.33"/>
            <lane id="38866846#2_0" queueing_time="3.00" queueing_length="6.00" queueing_length_experimental="6.00"/>
            <lane id="85711505#2_0" queueing_time="13.00" queueing_length="21.00" queueing_length_experimental="21.00"/>
            <lane id="OrigionE3_0" queueing_time="1.00" queueing_length="6.02" queueing_length_experimental="6.02"/>
            <lane id="OrigionW2_0" queueing_time="11.00" queueing_length="6.00" queueing_length_experimental="6.00"/>
        </lanes>
    </data>
    <data timestep="55.00">
        <lanes>
            <lane id="-230491007_0" queueing_time="4.00" queueing_length="6.00" queueing_length_experimental="13.54"/>
            <lane id="-69555386#1_0" queueing_time="3.00" queueing_length="5.00" queueing_length_experimental="5.00"/>
            <lane id="-85711505#4_0" queueing_time="0.00" queueing_length="0.00" queueing_length_experimental="6.08"/>