<?xml version="1.0" encoding="UTF-8"?>

<!-- generated on Mon Dec 10 17:08:03 2018 by Eclipse SUMO Version v1_0_1+0999-ba34606b5d
<configuration xmlns:xsi="http://www.w3.org/2001/XMLSchema-instance" xsi:noNamespaceSchemaLocation="http://sumo.dlr.de/xsd/sumoConfiguration.xsd">

    <input>
        <net-file value="Chj_final.net.xml"/>
        <route-files value="Chj_Dynamic.rou.xml"/>
        <additional-files value="loops.xml"/>
    </input>

    <output>
        <queue-output value="queue.xml"/>
        <summary-output value="summary.xml"/>
        <tripinfo-output value="tripinfo.xml"/>
    </output>

    <time>
        <begin value="0"/>
        <end value="3600"/>
    </time>

    <report>
        <xml-validation value="never"/>
        <duration-log.disable value="true"/>
        <no-step-log value="true"/>
    </report>

    <traci_server>
        <remote-port value="35179"/>
    </traci_server>

    <random_number>
        <seed value="34"/>
    </random_number>

</configuration>
-->

<tripinfos xmlns:xsi="http://www.w3.org/2001/XMLSchema-instance" xsi:noNamespaceSchemaLocation="http://sumo.dlr.de/xsd/tripinfo_file.xsd">
    <tripinfo id="w4-s1_0.1" depart="4.00" departLane="OrigionW4_0" departPos="5.10" departSpeed="0.00" departDelay="-0.50" arrival="91.00" arrivalLane="DestinationS1_1" arrivalPos="373.48" arrivalSpeed="26.23" duration="87.00" routeLength="2089.17" waitingTime="0.00" waitingCount="0" stopTime="0.00" timeLoss="8.19" rerouteNo="0" devices="tripinfo_w4-s1_0.1" vType="DEFAULT_VEHTYPE" speedFactor="0.96" vaporized=""/>
    <tripinfo id="w4-s1_0.0" depart="0.00" departLane="OrigionW4_0" departPos="5.10" departSpeed="0.00" departDelay="0.00" arrival="92.00" arrivalLane="DestinationS1_0" arrivalPos="373.48" arrivalSpeed="24.65" duration="92.00" routeLength="2089.17" waitingTime="0.00" waitingCount="0" stopTime="0.00" timeLoss="9.29" rerouteNo="0" devices="tripinfo_w4-s1_0.0" vType="DEFAULT_VEHTYPE" speedFactor="0.92" vaporized=""/>
    <tripinfo id="w4-s1_0.3" depart="13.00" departLane="OrigionW4_0" departPos="5.10" departSpeed="0.00" departDelay="-0.50" arrival="123.00" arrivalLane="DestinationS1_0" arrivalPos="373.48" arrivalSpeed="29.69" duration="110.00" routeLength="2089.17" waitingTime="20.00" waitingCount="1" stopTime="0.00" timeLoss="40.90" rerouteNo="0" devices="tripinfo_w4-s1_0.3" vType="DEFAULT_VEHTYPE" speedFactor="1.10" vaporized=""/>
    <tripinfo id="s1-w4_0.1" depart="4.00" departLane="OrigionS1_0" departPos="5.10" departSpeed="0.00" departDelay="-0.50" arrival="125.00" arrivalLane="DestinationW4_0" arrivalPos="242.47" arrivalSpeed="26.86" duration="121.00" routeLength="2089.17" waitingTime="25.00" waitingCount="1" stopTime="0.00" timeLoss="44.51" rerouteNo="0" devices="tripinfo_s1-w4_0.1" vType="DEFAULT_VEHTYPE" speedFactor="0.98" vaporized=""/>
    <tripinfo id="w4-s1_0.2" depart="9.00" departLane="OrigionW4_0" departPos="5.10" departSpeed="0.00" departDelay="0.00" arrival="125.00" arrivalLane="DestinationS1_0" arrivalPos="373.48" arrivalSpeed="27.30" duration="116.00" routeLength="2089.17" waitingTime="21.00" waitingCount="1" stopTime="0.00" timeLoss="40.61" rerouteNo="0" devices="tripinfo_w4-s1_0.2" vType="DEFAULT_VEHTYPE" speedFactor="1.00" vaporized=""/>
    <tripinfo id="s1-w4_0.2" depart="9.00" departLane="OrigionS1_0" departPos="5.10" departSpeed="0.00" departDelay="0.00" arrival="127.00" arrivalLane="DestinationW4_1" arrivalPos="242.47" arrivalSpeed="25.32" duration="118.00" routeLength="2089.17" waitingTime="20.00" waitingCount="1" stopTime="0.00" timeLoss="36.76" rerouteNo="0" devices="tripinfo_s1-w4_0.2" vType="DEFAULT_VEHTYPE" speedFactor="0.93" vaporized=""/>
    <tripinfo id="w4-s1_0.4" depart="18.00" departLane="OrigionW4_0" departPos="5.10" departSpeed="0.00" departDelay="0.00" arrival="127.00" arrivalLane="DestinationS1_1" arrivalPos="373.48" arrivalSpeed="26.15" duration="109.00" routeLength="2089.17" waitingTime="11.00" waitingCount="1" stopTime="0.00" timeLoss="29.75" rerouteNo="0" devices="tripinfo_w4-s1_0.4" vType="DEFAULT_VEHTYPE" speedFactor="0.95" vaporized=""/>
    <tripinfo id="s1-w4_0.3" depart="13.00" departLane="OrigionS1_0" departPos="5.10" departSpeed="0.00" departDelay="-0.50" arrival="128.00" arrivalLane="DestinationW4_1" arrivalPos="242.47" arrivalSpeed="26.97" duration="115.00" routeLength="2089.17" waitingTime="20.00" waitingCount="1" stopTime="0.00" timeLoss="40.84" rerouteNo="0" devices="tripinfo_s1-w4_0.3" vType="DEFAULT_VEHTYPE" speedFactor="1.02" vaporized=""/>
    <tripinfo id="w4-s1_0.5" depart="22.00" departLane="OrigionW4_0" departPos="5.10" departSpeed="0.00" departDelay="-0.50" arrival="128.00" arrivalLane="DestinationS1_0" arrivalPos="373.48" arrivalSpeed="26.15" duration="106.00" routeLength="2089.17" waitingTime="8.00" waitingCount="1" stopTime="0.00" timeLoss="29.01" rerouteNo="0" devices="tripinfo_w4-s1_0.5" vType="DEFAULT_VEHTYPE" speedFactor="0.98" vaporized=""/>
    <tripinfo id="w4-s1_0.6" depart="27.00" departLane="OrigionW4_0" departPos="5.10" departSpeed="0.00" departDelay="0.00" arrival="129.00" arrivalLane="DestinationS1_1" arrivalPos="373.48" arrivalSpeed="25.24" duration="102.00" routeLength="2089.17" waitingTime="3.00" waitingCount="1" stopTime="0.00" timeLoss="22.08" rerouteNo="0" devices="tripinfo_w4-s1_0.6" vType="DEFAULT_VEHTYPE" speedFactor="0.95" vaporized=""/>
    <tripinfo id="s1-w4_0.4" depart="18.00" departLane="OrigionS1_0" departPos="5.10" departSpeed="0.00" departDelay="0.00" arrival="130.00" arrivalLane="DestinationW4_1" arrivalPos="242.47" arrivalSpeed="28.58" duration="112.00" routeLength="2089.17" waitingTime="17.00" waitingCount="1" stopTime="0.00" timeLoss="38.41" rerouteNo="0" devices="tripinfo_s1-w4_0.4" vType="DEFAULT_VEHTYPE" speedFactor="1.03" vaporized=""/>
    <tripinfo id="s1-w4_0.0" depart="0.00" departLane="OrigionS1_0" departPos="5.10" departSpeed="0.00" departDelay="0.00" arrival="132.00" arrivalLane="DestinationW4_0" arrivalPos="242.47" arrivalSpeed="20.87" duration="132.00" routeLength="2089.17" waitingTime="19.00" waitingCount="1" stopTime="0.00" timeLoss="35.10" rerouteNo="0" devices="tripinfo_s1-w4_0.0" vType="DEFAULT_VEHTYPE" speedFactor="0.78" vaporized=""/>
    <tripinfo id="s1-w4_0.6" depart="27.00" departLane="OrigionS1_0" departPos="5.10" departSpeed="0.00" departDelay="0.00" arrival="138.00" arrivalLane="DestinationW4_0" arrivalPos="242.47" arrivalSpeed="29.73" duration="111.00" routeLength="2089.17" waitingTime="28.00" waitingCount="1" stopTime="0.00" timeLoss="42.63" rerouteNo="0" devices="tripinfo_s1-w4_0.6" vType="DEFAULT_VEHTYPE" speedFactor="1.11" vaporized=""/>
    <tripinfo id="s1-w4_0.7" depart="31.00" departLane="OrigionS1_0" departPos="5.10" departSpeed="0.00" departDelay="-0.50" arrival="143.00" arrivalLane="DestinationW4_1" arrivalPos="242.47" arrivalSpeed="27.43" duration="112.00" routeLength="2089.17" waitingTime="19.00" waitingCount="1" stopTime="0.00" timeLoss="37.81" rerouteNo="0" devices="tripinfo_s1-w4_0.7" vType="DEFAULT_VEHTYPE" speedFactor="1.02" vaporized=""/>
    <tripinfo id="s1-w4_0.8" depart="36.00" departLane="OrigionS1_0" departPos="5.10" departSpeed="0.00" departDelay="0.00" arrival="145.00" arrivalLane="DestinationW4_1" arrivalPos="242.47" arrivalSpeed="30.83" duration="109.00" routeLength="2089.17" waitingTime="12.00" waitingCount="2" stopTime="0.00" timeLoss="45.50" rerouteNo="0" devices="tripinfo_s1-w4_0.8" vType="DEFAULT_VEHTYPE" speedFactor="1.20" vaporized=""/>
    <tripinfo id="w4-s1_0.9" depart="40.00" departLane="OrigionW4_0" departPos="5.10" departSpeed="0.00" departDelay="-0.50" arrival="182.00" arrivalLane="DestinationS1_1" arrivalPos="373.48" arrivalSpeed="30.77" duration="142.00" routeLength="2089.17" waitingTime="43.00" waitingCount="2" stopTime="0.00" timeLoss="74.72" rerouteNo="0" devices="tripinfo_w4-s1_0.9" vType="DEFAULT_VEHTYPE" speedFactor="1.13" vaporized=""/>
    <tripinfo id="s1-w4_0.9" depart="40.00" departLane="OrigionS1_0" departPos="5.10" departSpeed="0.00" departDelay="-0.50" arrival="183.00" arrivalLane="DestinationW4_1" arrivalPos="242.47" arrivalSpeed="29.79" duration="143.00" routeLength="2089.17" waitingTime="43.00" waitingCount="2" stopTime="0.00" timeLoss="73.29" rerouteNo="0" devices="tripinfo_s1-w4_0.9" vType="DEFAULT_VEHTYPE" speedFactor="1.09" vaporized=""/>
    <tripinfo id="w4-s1_0.11" depart="49.00" departLane="OrigionW4_0" departPos="5.10" departSpeed="0.00" departDelay="-0.50" arrival="183.00" arrivalLane="DestinationS1_1" arrivalPos="373.48" arrivalSpeed="32.27" duration="134.00" routeLength="2089.17" waitingTime="35.00" waitingCount="2" stopTime="0.00" timeLoss="70.10" rerouteNo="0" devices="tripinfo_w4-s1_0.11" vType="DEFAULT_VEHTYPE" speedFactor="1.18" vaporized=""/>
    <tripinfo id="w4-s1_0.8" depart="36.00" departLane="OrigionW4_0" departPos="5.10" departSpeed="0.00" departDelay="0.00" arrival="184.00" arrivalLane="DestinationS1_0" arrivalPos="373.48" arrivalSpeed="28.97" duration="148.00" routeLength="2089.17" waitingTime="51.00" waitingCount="2" stopTime="0.00" timeLoss="76.70" rerouteNo="0" devices="tripinfo_w4-s1_0.8" vType="DEFAULT_VEHTYPE" speedFactor="1.07" vaporized=""/>
    <tripinfo id="s1-w4_0.10" depart="45.00" departLane="OrigionS1_0" departPos="5.10" departSpeed="0.00" departDelay="0.00" arrival="185.00" arrivalLane="DestinationW4_1" arrivalPos="242.47" arrivalSpeed="30.43" duration="140.00" routeLength="2089.17" waitingTime="33.00" waitingCount="3" stopTime="0.00" timeLoss="71.78" rerouteNo="0" devices="tripinfo_s1-w4_0.10" vType="DEFAULT_VEHTYPE" speedFactor="1.11" vaporized=""/>
    <tripinfo id="s4-n5_0.0" depart="0.00" departLane="OrigionS4_0" departPos="5.10" departSpeed="0.00" departDelay="0.00" arrival="185.00" arrivalLane="DestinationN5_0" arrivalPos="178.17" arrivalSpeed="12.39" duration="185.00" routeLength="3209.41" waitingTime="2.00" waitingCount="1" stopTime="0.00" timeLoss="34.40" rerouteNo="0" devices="tripinfo_s4-n5_0.0" vType="DEFAULT_VEHTYPE" speedFactor="0.95" vaporized=""/>
    <tripinfo id="w4-s1_0.7" depart="31.00" departLane="OrigionW4_0" departPos="5.10" departSpeed="0.00" departDelay="-0.50" arrival="186.00" arrivalLane="DestinationS1_0" arrivalPos="373.48" arrivalSpeed="28.29" duration="155.00" routeLength="2089.17" waitingTime="54.00" waitingCount="2" stopTime="0.00" timeLoss="82.10" rerouteNo="0" devices="tripinfo_w4-s1_0.7" vType="DEFAULT_VEHTYPE" speedFactor="1.04" vaporized=""/>
    <tripinfo id="e5-e1_0.0" depart="0.00" departLane="OrigionE5_0" departPos="5.10" departSpeed="0.00" departDelay="0.00" arrival="187.00" arrivalLane="DestinationE1_0" arrivalPos="250.56" arrivalSpeed="22.90" duration="187.00" routeLength="2162.05" waitingTime="56.00" waitingCount="2" stopTime="0.00" timeLoss="83.29" rerouteNo="0" devices="tripinfo_e5-e1_0.0" vType="DEFAULT_VEHTYPE" speedFactor="1.05" vaporized=""/>
    <tripinfo id="w4-s1_0.10" depart="45.00" departLane="OrigionW4_0" departPos="5.10" departSpeed="0.00" departDelay="0.00" arrival="188.00" arrivalLane="DestinationS1_0" arrivalPos="373.48" arrivalSpeed="27.67" duration="143.00" routeLength="2089.17" waitingTime="35.00" waitingCount="3" stopTime="0.00" timeLoss="70.59" rerouteNo="0" devices="tripinfo_w4-s1_0.10" vType="DEFAULT_VEHTYPE" speedFactor="1.04" vaporized=""/>
    <tripinfo id="w4-s1_0.13" depart="58.00" departLane="OrigionW4_0" departPos="5.10" departSpeed="0.00" departDelay="-0.50" arrival="188.00" arrivalLane="DestinationS1_1" arrivalPos="373.48" arrivalSpeed="27.52" duration="130.00" routeLength="2089.17" waitingTime="20.00" waitingCount="2" stopTime="0.00" timeLoss="54.58" rerouteNo="0" devices="tripinfo_w4-s1_0.13" vType="DEFAULT_VEHTYPE" speedFactor="1.01" vaporized=""/>
    <tripinfo id="e5-e1_0.1" depart="7.00" departLane="OrigionE5_0" departPos="5.10" departSpeed="0.00" departDelay="-0.50" arrival="188.00" arrivalLane="DestinationE1_0" arrivalPos="250.56" arrivalSpeed="24.19" duration="181.00" routeLength="2162.05" waitingTime="52.00" waitingCount="2" stopTime="0.00" timeLoss="82.45" rerouteNo="0" devices="tripinfo_e5-e1_0.1" vType="DEFAULT_VEHTYPE" speedFactor="1.10" vaporized=""/>
    <tripinfo id="w4-s1_0.14" depart="63.00" departLane="OrigionW4_0" departPos="5.10" departSpeed="0.00" departDelay="0.00" arrival="189.00" arrivalLane="DestinationS1_1" arrivalPos="373.48" arrivalSpeed="27.81" duration="126.00" routeLength="2089.17" waitingTime="18.00" waitingCount="1" stopTime="0.00" timeLoss="51.10" rerouteNo="0" devices="tripinfo_w4-s1_0.14" vType="DEFAULT_VEHTYPE" speedFactor="1.01" vaporized=""/>
    <tripinfo id="e4-w8_0.0" depart="0.00" departLane="OrigionE4_0" departPos="5.10" departSpeed="0.00" departDelay="0.00" arrival="190.00" arrivalLane="DestinationW8_0" arrivalPos="167.98" arrivalSpeed="23.78" duration="190.00" routeLength="3459.08" waitingTime="10.00" waitingCount="2" stopTime="0.00" timeLoss="50.37" rerouteNo="0" devices="tripinfo_e4-w8_0.0" vType="DEFAULT_VEHTYPE" speedFactor="1.12" vaporized=""/>
    <tripinfo id="s1-w4_0.5" depart="22.00" departLane="OrigionS1_0" departPos="5.10" departSpeed="0.00" departDelay="-0.50" arrival="191.00" arrivalLane="DestinationW4_0" arrivalPos="242.47" arrivalSpeed="21.93" duration="169.00" routeLength="2089.17" waitingTime="53.00" waitingCount="2" stopTime="0.00" timeLoss="75.36" rerouteNo="0" devices="tripinfo_s1-w4_0.5" vType="DEFAULT_VEHTYPE" speedFactor="0.81" vaporized=""/>
    <tripinfo id="s1-w4_0.11" depart="49.00" departLane="OrigionS1_0" departPos="5.10" departSpeed="0.00" departDelay="-0.50" arrival="191.00" arrivalLane="DestinationW4_1" arrivalPos="242.47" arrivalSpeed="23.98" duration="142.00" routeLength="2089.17" waitingTime="29.00" waitingCount="1" stopTime="0.00" timeLoss="55.36" rerouteNo="0" devices="tripinfo_s1-w4_0.11" vType="DEFAULT_VEHTYPE" speedFactor="0.87" vaporized=""/>
    <tripinfo id="w4-s1_0.12" depart="54.00" departLane="OrigionW4_0" departPos="5.10" departSpeed="0.00" departDelay="0.00" arrival="191.00" arrivalLane="DestinationS1_0" arrivalPos="373.48" arrivalSpeed="26.91" duration="137.00" routeLength="2089.17" waitingTime="27.00" waitingCount="3" stopTime="0.00" timeLoss="59.38" rerouteNo="0" devices="tripinfo_w4-s1_0.12" vType="DEFAULT_VEHTYPE" speedFactor="0.98" vaporized=""/>
    <tripinfo id="w4-s1_0.17" depart="76.00" departLane="OrigionW4_0" departPos="5.10" departSpeed="0.00" departDelay="-0.50" arrival="191.00" arrivalLane="DestinationS1_1" arrivalPos="373.48" arrivalSpeed="29.88" duration="115.00" routeLength="2089.17" waitingTime="18.00" waitingCount="1" stopTime="0.00" timeLoss="45.19" rerouteNo="0" devices="tripinfo_w4-s1_0.17" vType="DEFAULT_VEHTYPE" speedFactor="1.09" vaporized=""/>
    <tripinfo id="s1-w4_0.12" depart="54.00" departLane="OrigionS1_0" departPos="5.10" departSpeed="0.00" departDelay="0.00" arrival="192.00" arrivalLane="DestinationW4_0" arrivalPos="242.47" arrivalSpeed="22.60" duration="138.00" routeLength="2089.17" waitingTime="24.00" waitingCount="1" stopTime="0.00" timeLoss="49.28" rerouteNo="0" devices="tripinfo_s1-w4_0.12" vType="DEFAULT_VEHTYPE" speedFactor="0.85" vaporized=""/>
    <tripinfo id="s1-w4_0.14" depart="63.00" departLane="OrigionS1_0" departPos="5.10" departSpeed="0.00" departDelay="0.00" arrival="192.00" arrivalLane="DestinationW4_1" arrivalPos="242.47" arrivalSpeed="27.00" duration="129.00" routeLength="2089.17" waitingTime="28.00" waitingCount="1" stopTime="0.00" timeLoss="62.96" rerouteNo="0" devices="tripinfo_s1-w4_0.14" vType="DEFAULT_VEHTYPE" speedFactor="1.14" vaporized=""/>
    <tripinfo id="w4-s1_0.15" depart="67.00" departLane="OrigionW4_0" departPos="5.10" departSpeed="0.00" departDelay="-0.50" arrival="193.00" arrivalLane="DestinationS1_0" arrivalPos="373.48" arrivalSpeed="25.34" duration="126.00" routeLength="2089.17" waitingTime="18.00" waitingCount="1" stopTime="0.00" timeLoss="45.67" rerouteNo="0" devices="tripinfo_w4-s1_0.15" vType="DEFAULT_VEHTYPE" speedFactor="0.94" vaporized=""/>
    <tripinfo id="s1-w4_0.16" depart="72.00" departLane="OrigionS1_0" departPos="5.10" departSpeed="0.00" departDelay="0.00" arrival="194.00" arrivalLane="DestinationW4_1" arrivalPos="242.47" arrivalSpeed="28.22" duration="122.00" routeLength="2089.17" waitingTime="25.00" waitingCount="1" stopTime="0.00" timeLoss="48.28" rerouteNo="0" devices="tripinfo_s1-w4_0.16" vType="DEFAULT_VEHTYPE" speedFactor="1.03" vaporized=""/>
    <tripinfo id="w4-s1_0.18" depart="81.00" departLane="OrigionW4_0" departPos="5.10" departSpeed="0.00" departDelay="0.00" arrival="194.00" arrivalLane="DestinationS1_1" arrivalPos="373.48" arrivalSpeed="26.25" duration="113.00" routeLength="2089.17" waitingTime="13.00" waitingCount="1" stopTime="0.00" timeLoss="33.74" rerouteNo="0" devices="tripinfo_w4-s1_0.18" vType="DEFAULT_VEHTYPE" speedFactor="0.96" vaporized=""/>
    <tripinfo id="s1-w4_0.19" depart="85.00" departLane="OrigionS1_0" departPos="5.10" departSpeed="0.00" departDelay="-0.50" arrival="195.00" arrivalLane="DestinationW4_1" arrivalPos="242.47" arrivalSpeed="27.83" duration="110.00" routeLength="2089.17" waitingTime="16.00" waitingCount="1" stopTime="0.00" timeLoss="46.72" rerouteNo="0" devices="tripinfo_s1-w4_0.19" vType="DEFAULT_VEHTYPE" speedFactor="1.19" vaporized=""/>
    <tripinfo id="w4-s1_0.19" depart="85.00" departLane="OrigionW4_0" departPos="5.10" departSpeed="0.00" departDelay="-0.50" arrival="195.00" arrivalLane="DestinationS1_1" arrivalPos="373.48" arrivalSpeed="27.15" duration="110.00" routeLength="2089.17" waitingTime="12.00" waitingCount="1" stopTime="0.00" timeLoss="33.98" rerouteNo="0" devices="tripinfo_w4-s1_0.19" vType="DEFAULT_VEHTYPE" speedFactor="0.99" vaporized=""/>
    <tripinfo id="s1-w4_0.13" depart="58.00" departLane="OrigionS1_0" departPos="5.10" departSpeed="0.00" departDelay="-0.50" arrival="196.00" arrivalLane="DestinationW4_0" arrivalPos="242.47" arrivalSpeed="20.77" duration="138.00" routeLength="2089.17" waitingTime="20.00" waitingCount="1" stopTime="0.00" timeLoss="37.85" rerouteNo="0" devices="tripinfo_s1-w4_0.13" vType="DEFAULT_VEHTYPE" speedFactor="0.75" vaporized=""/>
    <tripinfo id="w4-s1_0.16" depart="72.00" departLane="OrigionW4_0" departPos="5.10" departSpeed="0.00" departDelay="0.00" arrival="196.00" arrivalLane="DestinationS1_0" arrivalPos="373.48" arrivalSpeed="24.24" duration="124.00" routeLength="2089.17" waitingTime="18.00" waitingCount="1" stopTime="0.00" timeLoss="39.77" rerouteNo="0" devices="tripinfo_w4-s1_0.16" vType="DEFAULT_VEHTYPE" speedFactor="0.90" vaporized=""/>
    <tripinfo id="s1-w4_0.18" depart="81.00" departLane="OrigionS1_0" departPos="5.10" departSpeed="0.00" departDelay="0.00" arrival="197.00" arrivalLane="DestinationW4_1" arrivalPos="242.47" arrivalSpeed="23.69" duration="116.00" routeLength="2089.17" waitingTime="9.00" waitingCount="1" stopTime="0.00" timeLoss="30.77" rerouteNo="0" devices="tripinfo_s1-w4_0.18" vType="DEFAULT_VEHTYPE" speedFactor="0.89" vaporized=""/>
    <tripinfo id="s1-w4_0.17" depart="76.00" departLane="OrigionS1_0" departPos="5.10" departSpeed="0.00" departDelay="-0.50" arrival="198.00" arrivalLane="DestinationW4_0" arrivalPos="242.47" arrivalSpeed="21.79" duration="122.00" routeLength="2089.17" waitingTime="16.00" waitingCount="1" stopTime="0.00" timeLoss="42.70" rerouteNo="0" devices="tripinfo_s1-w4_0.17" vType="DEFAULT_VEHTYPE" speedFactor="0.96" vaporized=""/>
    <tripinfo id="s4-n5_0.1" depart="4.00" departLane="OrigionS4_0" departPos="5.10" departSpeed="0.00" departDelay="-0.50" arrival="198.00" arrivalLane="DestinationN5_0" arrivalPos="178.17" arrivalSpeed="11.08" duration="194.00" routeLength="3209.41" waitingTime="0.00" waitingCount="0" stopTime="0.00" timeLoss="20.18" rerouteNo="0" devices="tripinfo_s4-n5_0.1" vType="DEFAULT_VEHTYPE" speedFactor="0.82" vaporized=""/>
    <tripinfo id="s1-w4_0.15" depart="67.00" departLane="OrigionS1_0" departPos="5.10" departSpeed="0.00" departDelay="-0.50" arrival="199.00" arrivalLane="DestinationW4_0" arrivalPos="242.47" arrivalSpeed="22.51" duration="132.00" routeLength="2089.17" waitingTime="18.00" waitingCount="2" stopTime="0.00" timeLoss="45.23" rerouteNo="0" devices="tripinfo_s1-w4_0.15" vType="DEFAULT_VEHTYPE" speedFactor="0.87" vaporized=""/>
    <tripinfo id="s1-w4_0.20" depart="90.00" departLane="OrigionS1_0" departPos="5.10" departSpeed="0.00" departDelay="0.00" arrival="199.00" arrivalLane="DestinationW4_1" arrivalPos="242.47" arrivalSpeed="29.40" duration="109.00" routeLength="2089.17" waitingTime="22.00" waitingCount="1" stopTime="0.00" timeLoss="43.29" rerouteNo="0" devices="tripinfo_s1-w4_0.20" vType="DEFAULT_VEHTYPE" speedFactor="1.16" vaporized=""/>
    <tripinfo id="s4-n5_0.2" depart="9.00" departLane="OrigionS4_0" departPos="5.10" departSpeed="0.00" departDelay="0.00" arrival="199.00" arrivalLane="DestinationN5_0" arrivalPos="178.17" arrivalSpeed="12.78" duration="190.00" routeLength="3209.41" waitingTime="0.00" waitingCount="0" stopTime="0.00" timeLoss="49.22" rerouteNo="0" devices="tripinfo_s4-n5_0.2" vType="DEFAULT_VEHTYPE" speedFactor="1.01" vaporized=""/>
    <tripinfo id="s1-w4_0.23" depart="103.00" departLane="OrigionS1_0" departPos="5.10" departSpeed="0.00" departDelay="-0.50" arrival="203.00" arrivalLane="DestinationW4_1" arrivalPos="242.47" arrivalSpeed="33.50" duration="100.00" routeLength="2089.17" waitingTime="10.00" waitingCount="1" stopTime="0.00" timeLoss="39.04" rerouteNo="0" devices="tripinfo_s1-w4_0.23" vType="DEFAULT_VEHTYPE" speedFactor="1.24" vaporized=""/>
    <tripinfo id="s1-w4_0.21" depart="94.00" departLane="OrigionS1_0" departPos="5.10" departSpeed="0.00" departDelay="-0.50" arrival="205.00" arrivalLane="DestinationW4_0" arrivalPos="242.47" arrivalSpeed="25.35" duration="111.00" routeLength="2089.17" waitingTime="12.00" waitingCount="1" stopTime="0.00" timeLoss="30.75" rerouteNo="0" devices="tripinfo_s1-w4_0.21" vType="DEFAULT_VEHTYPE" speedFactor="0.94" vaporized=""/>
    <tripinfo id="n7-s3_0.0" depart="0.00" departLane="OrigionN7_0" departPos="5.10" departSpeed="0.00" departDelay="0.00" arrival="208.00" arrivalLane="DestinationS3_0" arrivalPos="924.28" arrivalSpeed="32.94" duration="208.00" routeLength="4886.27" waitingTime="39.00" waitingCount="1" stopTime="0.00" timeLoss="62.02" rerouteNo="0" devices="tripinfo_n7-s3_0.0" vType="DEFAULT_VEHTYPE" speedFactor="1.21" vaporized=""/>
    <tripinfo id="s6-w5_0.0" depart="0.00" departLane="OrigionS6_0" departPos="5.10" departSpeed="0.00" departDelay="0.00" arrival="224.00" arrivalLane="DestinationW5_0" arrivalPos="259.12" arrivalSpeed="13.20" duration="224.00" routeLength="3323.55" waitingTime="61.00" waitingCount="2" stopTime="0.00" timeLoss="99.97" rerouteNo="0" devices="tripinfo_s6-w5_0.0" vType="DEFAULT_VEHTYPE" speedFactor="1.04" vaporized=""/>
    <tripinfo id="n4-w2_0.1" depart="4.00" departLane="OrigionN4_0" departPos="5.10" departSpeed="0.00" departDelay="-0.50" arrival="228.00" arrivalLane="DestinationW2_0" arrivalPos="782.62" arrivalSpeed="26.25" duration="224.00" routeLength="3590.24" waitingTime="56.00" waitingCount="2" stopTime="0.00" timeLoss="95.52" rerouteNo="0" devices="tripinfo_n4-w2_0.1" vType="DEFAULT_VEHTYPE" speedFactor="1.20" vaporized=""/>
    <tripinfo id="s6-w5_0.1" depart="4.00" departLane="OrigionS6_0" departPos="5.10" departSpeed="0.00" departDelay="-0.50" arrival="228.00" arrivalLane="DestinationW5_0" arrivalPos="259.12" arrivalSpeed="13.44" duration="224.00" routeLength="3323.55" waitingTime="55.00" waitingCount="2" stopTime="0.00" timeLoss="97.49" rerouteNo="0" devices="tripinfo_s6-w5_0.1" vType="DEFAULT_VEHTYPE" speedFactor="1.02" vaporized=""/>
    <tripinfo id="e3-s5_0.0" depart="3.00" departLane="OrigionE3_0" departPos="5.10" departSpeed="0.00" departDelay="3.00" arrival="232.00" arrivalLane="DestinationS5_0" arrivalPos="746.72" arrivalSpeed="20.51" duration="229.00" routeLength="3631.94" waitingTime="54.00" waitingCount="2" stopTime="0.00" timeLoss="81.83" rerouteNo="0" devices="tripinfo_e3-s5_0.0" vType="DEFAULT_VEHTYPE" speedFactor="0.94" vaporized=""/>
    <tripinfo id="w8-e4_0.0" depart="0.00" departLane="OrigionW8_0" departPos="5.10" departSpeed="0.00" departDelay="0.00" arrival="234.00" arrivalLane="DestinationE4_0" arrivalPos="384.36" arrivalSpeed="24.26" duration="234.00" routeLength="3459.08" waitingTime="50.00" waitingCount="3" stopTime="0.00" timeLoss="94.12" rerouteNo="0" devices="tripinfo_w8-e4_0.0" vType="DEFAULT_VEHTYPE" speedFactor="1.12" vaporized=""/>
    <tripinfo id="n4-w2_0.0" depart="0.00" departLane="OrigionN4_0" departPos="5.10" departSpeed="0.00" departDelay="0.00" arrival="239.00" arrivalLane="DestinationW2_0" arrivalPos="782.62" arrivalSpeed="21.50" duration="239.00" routeLength="3590.24" waitingTime="49.00" waitingCount="2" stopTime="0.00" timeLoss="80.58" rerouteNo="0" devices="tripinfo_n4-w2_0.0" vType="DEFAULT_VEHTYPE" speedFactor="0.98" vaporized=""/>
    <tripinfo id="n4-w2_0.2" depart="9.00" departLane="OrigionN4_0" departPos="5.10" departSpeed="0.00" departDelay="0.00" arrival="240.00" arrivalLane="DestinationW2_0" arrivalPos="782.62" arrivalSpeed="21.44" duration="231.00" routeLength="3590.24" waitingTime="43.00" waitingCount="2" stopTime="0.00" timeLoss="76.53" rerouteNo="0" devices="tripinfo_n4-w2_0.2" vType="DEFAULT_VEHTYPE" speedFactor="1.00" vaporized=""/>
    <tripinfo id="n2-s8_0.0" depart="0.00" departLane="OrigionN2_0" departPos="5.10" departSpeed="0.00" departDelay="0.00" arrival="240.00" arrivalLane="DestinationS8_0" arrivalPos="419.24" arrivalSpeed="19.33" duration="240.00" routeLength="3729.72" waitingTime="40.00" waitingCount="2" stopTime="0.00" timeLoss="66.89" rerouteNo="0" devices="tripinfo_n2-s8_0.0" vType="DEFAULT_VEHTYPE" speedFactor="0.90" vaporized=""/>
    <tripinfo id="w8-e4_0.1" depart="4.00" departLane="OrigionW8_0" departPos="5.10" departSpeed="0.00" departDelay="-0.50" arrival="241.00" arrivalLane="DestinationE4_0" arrivalPos="384.36" arrivalSpeed="21.46" duration="237.00" routeLength="3459.08" waitingTime="43.00" waitingCount="2" stopTime="0.00" timeLoss="77.85" rerouteNo="0" devices="tripinfo_w8-e4_0.1" vType="DEFAULT_VEHTYPE" speedFactor="0.98" vaporized=""/>
    <tripinfo id="w8-e4_0.2" depart="9.00" departLane="OrigionW8_0" departPos="5.10" departSpeed="0.00" departDelay="0.00" arrival="243.00" arrivalLane="DestinationE4_0" arrivalPos="384.36" arrivalSpeed="22.52" duration="234.00" routeLength="3459.08" waitingTime="39.00" waitingCount="2" stopTime="0.00" timeLoss="83.19" rerouteNo="0" devices="tripinfo_w8-e4_0.2" vType="DEFAULT_VEHTYPE" speedFactor="1.04" vaporized=""/>
    <tripinfo id="w8-e4_0.3" depart="13.00" departLane="OrigionW8_0" departPos="5.10" departSpeed="0.00" departDelay="-0.50" arrival="244.00" arrivalLane="DestinationE4_0" arrivalPos="384.36" arrivalSpeed="21.84" duration="231.00" routeLength="3459.08" waitingTime="37.00" waitingCount="2" stopTime="0.00" timeLoss="74.88" rerouteNo="0" devices="tripinfo_w8-e4_0.3" vType="DEFAULT_VEHTYPE" speedFactor="1.00" vaporized=""/>
    <tripinfo id="s1-w4_0.24" depart="108.00" departLane="OrigionS1_0" departPos="5.10" departSpeed="0.00" departDelay="0.00" arrival="246.00" arrivalLane="DestinationW4_1" arrivalPos="242.47" arrivalSpeed="27.51" duration="138.00" routeLength="2089.17" waitingTime="36.00" waitingCount="2" stopTime="0.00" timeLoss="63.53" rerouteNo="0" devices="tripinfo_s1-w4_0.24" vType="DEFAULT_VEHTYPE" speedFactor="1.02" vaporized=""/>
    <tripinfo id="w4-s1_0.20" depart="90.00" departLane="OrigionW4_0" departPos="5.10" departSpeed="0.00" departDelay="0.00" arrival="246.00" arrivalLane="DestinationS1_0" arrivalPos="373.48" arrivalSpeed="26.27" duration="156.00" routeLength="2089.17" waitingTime="48.00" waitingCount="2" stopTime="0.00" timeLoss="79.62" rerouteNo="0" devices="tripinfo_w4-s1_0.20" vType="DEFAULT_VEHTYPE" speedFactor="0.99" vaporized=""/>
    <tripinfo id="w4-s1_0.21" depart="94.00" departLane="OrigionW4_0" departPos="5.10" departSpeed="0.00" departDelay="-0.50" arrival="246.00" arrivalLane="DestinationS1_1" arrivalPos="373.48" arrivalSpeed="25.79" duration="152.00" routeLength="2089.17" waitingTime="45.00" waitingCount="2" stopTime="0.00" timeLoss="73.16" rerouteNo="0" devices="tripinfo_w4-s1_0.21" vType="DEFAULT_VEHTYPE" speedFactor="0.96" vaporized=""/>
    <tripinfo id="e5-e1_0.2" depart="15.00" departLane="OrigionE5_0" departPos="5.10" departSpeed="0.00" departDelay="0.00" arrival="248.00" arrivalLane="DestinationE1_0" arrivalPos="250.56" arrivalSpeed="19.68" duration="233.00" routeLength="2162.05" waitingTime="81.00" waitingCount="3" stopTime="0.00" timeLoss="115.00" rerouteNo="0" devices="tripinfo_e5-e1_0.2" vType="DEFAULT_VEHTYPE" speedFactor="0.92" vaporized=""/>
    <tripinfo id="s1-w4_0.26" depart="117.00" departLane="OrigionS1_0" departPos="5.10" departSpeed="0.00" departDelay="0.00" arrival="249.00" arrivalLane="DestinationW4_1" arrivalPos="242.47" arrivalSpeed="25.12" duration="132.00" routeLength="2089.17" waitingTime="28.00" waitingCount="1" stopTime="0.00" timeLoss="48.99" rerouteNo="0" devices="tripinfo_s1-w4_0.26" vType="DEFAULT_VEHTYPE" speedFactor="0.91" vaporized=""/>
    <tripinfo id="w4-s1_0.22" depart="99.00" departLane="OrigionW4_0" departPos="5.10" departSpeed="0.00" departDelay="0.00" arrival="249.00" arrivalLane="DestinationS1_1" arrivalPos="373.48" arrivalSpeed="23.97" duration="150.00" routeLength="2089.17" waitingTime="37.00" waitingCount="2" stopTime="0.00" timeLoss="65.99" rerouteNo="0" devices="tripinfo_w4-s1_0.22" vType="DEFAULT_VEHTYPE" speedFactor="0.90" vaporized=""/>
    <tripinfo id="n2-s8_0.1" depart="7.00" departLane="OrigionN2_0" departPos="5.10" departSpeed="0.00" departDelay="-0.50" arrival="249.00" arrivalLane="DestinationS8_0" arrivalPos="419.24" arrivalSpeed="17.02" duration="242.00" routeLength="3729.72" waitingTime="27.00" waitingCount="2" stopTime="0.00" timeLoss="51.98" rerouteNo="0" devices="tripinfo_n2-s8_0.1" vType="DEFAULT_VEHTYPE" speedFactor="0.82" vaporized=""/>