<?xml version="1.0" encoding="UTF-8"?>

<!-- generated on Mon Dec 10 20:47:36 2018 by Eclipse SUMO Version v1_0_1+0999-ba34606b5d
<configuration xmlns:xsi="http://www.w3.org/2001/XMLSchema-instance" xsi:noNamespaceSchemaLocation="http://sumo.dlr.de/xsd/sumoConfiguration.xsd">

    <input>
        <net-file value="Chj_final.net.xml"/>
        <route-files value="Chj_Dynamic.rou.xml"/>
        <additional-files value="loops.xml"/>
    </input>

    <output>
        <queue-output value="queue.xml"/>
        <summary-output value="summary.xml"/>
        <tripinfo-output value="tripinfo.xml"/>
    </output>

    <time>
        <begin value="0"/>
        <end value="3600"/>
    </time>

    <report>
        <xml-validation value="never"/>
        <duration-log.disable value="true"/>
        <no-step-log value="true"/>
    </report>

    <traci_server>
        <remote-port value="52328"/>
    </traci_server>

    <random_number>
        <seed value="94"/>
    </random_number>

</configuration>
-->

<tripinfos xmlns:xsi="http://www.w3.org/2001/XMLSchema-instance" xsi:noNamespaceSchemaLocation="http://sumo.dlr.de/xsd/tripinfo_file.xsd">
    <tripinfo id="s1-w4_0.1" depart="4.00" departLane="OrigionS1_0" departPos="5.10" departSpeed="0.00" departDelay="-0.50" arrival="76.00" arrivalLane="DestinationW4_1" arrivalPos="242.47" arrivalSpeed="33.14" duration="72.00" routeLength="2089.17" waitingTime="0.00" waitingCount="0" stopTime="0.00" timeLoss="9.71" rerouteNo="0" devices="tripinfo_s1-w4_0.1" vType="DEFAULT_VEHTYPE" speedFactor="1.21" vaporized=""/>
    <tripinfo id="s1-w4_0.0" depart="0.00" departLane="OrigionS1_0" departPos="5.10" departSpeed="0.00" departDelay="0.00" arrival="77.00" arrivalLane="DestinationW4_0" arrivalPos="242.47" arrivalSpeed="30.41" duration="77.00" routeLength="2089.17" waitingTime="0.00" waitingCount="0" stopTime="0.00" timeLoss="9.15" rerouteNo="0" devices="tripinfo_s1-w4_0.0" vType="DEFAULT_VEHTYPE" speedFactor="1.11" vaporized=""/>
    <tripinfo id="w4-s1_0.1" depart="4.00" departLane="OrigionW4_0" departPos="5.10" departSpeed="0.00" departDelay="-0.50" arrival="108.00" arrivalLane="DestinationS1_0" arrivalPos="373.48" arrivalSpeed="27.53" duration="104.00" routeLength="2089.17" waitingTime="9.00" waitingCount="1" stopTime="0.00" timeLoss="28.16" rerouteNo="0" devices="tripinfo_w4-s1_0.1" vType="DEFAULT_VEHTYPE" speedFactor="0.99" vaporized=""/>
    <tripinfo id="w4-s1_0.2" depart="9.00" departLane="OrigionW4_0" departPos="5.10" departSpeed="0.00" departDelay="0.00" arrival="111.00" arrivalLane="DestinationS1_1" arrivalPos="373.48" arrivalSpeed="26.55" duration="102.00" routeLength="2089.17" waitingTime="8.00" waitingCount="1" stopTime="0.00" timeLoss="25.18" rerouteNo="0" devices="tripinfo_w4-s1_0.2" vType="DEFAULT_VEHTYPE" speedFactor="0.99" vaporized=""/>
    <tripinfo id="w4-s1_0.0" depart="0.00" departLane="OrigionW4_0" departPos="5.10" departSpeed="0.00" departDelay="0.00" arrival="111.00" arrivalLane="DestinationS1_0" arrivalPos="373.48" arrivalSpeed="27.45" duration="111.00" routeLength="2089.17" waitingTime="16.00" waitingCount="1" stopTime="0.00" timeLoss="46.47" rerouteNo="0" devices="tripinfo_w4-s1_0.0" vType="DEFAULT_VEHTYPE" speedFactor="1.18" vaporized=""/>
    <tripinfo id="w4-s1_0.3" depart="13.00" departLane="OrigionW4_0" departPos="5.10" departSpeed="0.00" departDelay="-0.50" arrival="115.00" arrivalLane="DestinationS1_0" arrivalPos="373.48" arrivalSpeed="25.16" duration="102.00" routeLength="2089.17" waitingTime="0.00" waitingCount="0" stopTime="0.00" timeLoss="20.82" rerouteNo="0" devices="tripinfo_w4-s1_0.3" vType="DEFAULT_VEHTYPE" speedFactor="0.93" vaporized=""/>
    <tripinfo id="w4-s1_0.4" depart="18.00" departLane="OrigionW4_0" departPos="5.10" departSpeed="0.00" departDelay="0.00" arrival="116.00" arrivalLane="DestinationS1_1" arrivalPos="373.48" arrivalSpeed="25.16" duration="98.00" routeLength="2089.17" waitingTime="0.00" waitingCount="0" stopTime="0.00" timeLoss="15.74" rerouteNo="0" devices="tripinfo_w4-s1_0.4" vType="DEFAULT_VEHTYPE" speedFactor="0.92" vaporized=""/>
    <tripinfo id="w4-s1_0.5" depart="22.00" departLane="OrigionW4_0" departPos="5.10" departSpeed="0.00" departDelay="-0.50" arrival="117.00" arrivalLane="DestinationS1_1" arrivalPos="373.48" arrivalSpeed="26.56" duration="95.00" routeLength="2089.17" waitingTime="0.00" waitingCount="0" stopTime="0.00" timeLoss="21.57" rerouteNo="0" devices="tripinfo_w4-s1_0.5" vType="DEFAULT_VEHTYPE" speedFactor="1.03" vaporized=""/>
    <tripinfo id="s1-w4_0.4" depart="18.00" departLane="OrigionS1_0" departPos="5.10" departSpeed="0.00" departDelay="0.00" arrival="140.00" arrivalLane="DestinationW4_1" arrivalPos="242.47" arrivalSpeed="33.27" duration="122.00" routeLength="2089.17" waitingTime="36.00" waitingCount="1" stopTime="0.00" timeLoss="59.59" rerouteNo="0" devices="tripinfo_s1-w4_0.4" vType="DEFAULT_VEHTYPE" speedFactor="1.21" vaporized=""/>
    <tripinfo id="s1-w4_0.3" depart="13.00" departLane="OrigionS1_0" departPos="5.10" departSpeed="0.00" departDelay="-0.50" arrival="141.00" arrivalLane="DestinationW4_0" arrivalPos="242.47" arrivalSpeed="29.08" duration="128.00" routeLength="2089.17" waitingTime="36.00" waitingCount="1" stopTime="0.00" timeLoss="55.80" rerouteNo="0" devices="tripinfo_s1-w4_0.3" vType="DEFAULT_VEHTYPE" speedFactor="1.05" vaporized=""/>
    <tripinfo id="s1-w4_0.2" depart="9.00" departLane="OrigionS1_0" departPos="5.10" departSpeed="0.00" departDelay="0.00" arrival="143.00" arrivalLane="DestinationW4_0" arrivalPos="242.47" arrivalSpeed="25.28" duration="134.00" routeLength="2089.17" waitingTime="35.00" waitingCount="1" stopTime="0.00" timeLoss="53.66" rerouteNo="0" devices="tripinfo_s1-w4_0.2" vType="DEFAULT_VEHTYPE" speedFactor="0.94" vaporized=""/>
    <tripinfo id="s1-w4_0.8" depart="36.00" departLane="OrigionS1_0" departPos="5.10" departSpeed="0.00" departDelay="0.00" arrival="145.00" arrivalLane="DestinationW4_1" arrivalPos="242.47" arrivalSpeed="27.11" duration="109.00" routeLength="2089.17" waitingTime="9.00" waitingCount="1" stopTime="0.00" timeLoss="34.56" rerouteNo="0" devices="tripinfo_s1-w4_0.8" vType="DEFAULT_VEHTYPE" speedFactor="1.02" vaporized=""/>
    <tripinfo id="s1-w4_0.6" depart="27.00" departLane="OrigionS1_0" departPos="5.10" departSpeed="0.00" departDelay="0.00" arrival="146.00" arrivalLane="DestinationW4_0" arrivalPos="242.47" arrivalSpeed="23.68" duration="119.00" routeLength="2089.17" waitingTime="8.00" waitingCount="2" stopTime="0.00" timeLoss="33.23" rerouteNo="0" devices="tripinfo_s1-w4_0.6" vType="DEFAULT_VEHTYPE" speedFactor="0.88" vaporized=""/>
    <tripinfo id="s1-w4_0.9" depart="40.00" departLane="OrigionS1_0" departPos="5.10" departSpeed="0.00" departDelay="-0.50" arrival="147.00" arrivalLane="DestinationW4_1" arrivalPos="242.47" arrivalSpeed="27.17" duration="107.00" routeLength="2089.17" waitingTime="9.00" waitingCount="1" stopTime="0.00" timeLoss="31.12" rerouteNo="0" devices="tripinfo_s1-w4_0.9" vType="DEFAULT_VEHTYPE" speedFactor="1.00" vaporized=""/>
    <tripinfo id="s1-w4_0.5" depart="22.00" departLane="OrigionS1_0" departPos="5.10" departSpeed="0.00" departDelay="-0.50" arrival="149.00" arrivalLane="DestinationW4_0" arrivalPos="242.47" arrivalSpeed="23.00" duration="127.00" routeLength="2089.17" waitingTime="8.00" waitingCount="2" stopTime="0.00" timeLoss="36.91" rerouteNo="0" devices="tripinfo_s1-w4_0.5" vType="DEFAULT_VEHTYPE" speedFactor="0.84" vaporized=""/>
    <tripinfo id="s1-w4_0.10" depart="45.00" departLane="OrigionS1_0" departPos="5.10" departSpeed="0.00" departDelay="0.00" arrival="151.00" arrivalLane="DestinationW4_0" arrivalPos="242.47" arrivalSpeed="22.73" duration="106.00" routeLength="2089.17" waitingTime="0.00" waitingCount="0" stopTime="0.00" timeLoss="17.21" rerouteNo="0" devices="tripinfo_s1-w4_0.10" vType="DEFAULT_VEHTYPE" speedFactor="0.85" vaporized=""/>
    <tripinfo id="s1-w4_0.11" depart="49.00" departLane="OrigionS1_0" departPos="5.10" departSpeed="0.00" departDelay="-0.50" arrival="152.00" arrivalLane="DestinationW4_0" arrivalPos="242.47" arrivalSpeed="23.02" duration="103.00" routeLength="2089.17" waitingTime="0.00" waitingCount="0" stopTime="0.00" timeLoss="14.61" rerouteNo="0" devices="tripinfo_s1-w4_0.11" vType="DEFAULT_VEHTYPE" speedFactor="0.85" vaporized=""/>
    <tripinfo id="n4-w2_0.0" depart="0.00" departLane="OrigionN4_0" departPos="5.10" departSpeed="0.00" departDelay="0.00" arrival="159.00" arrivalLane="DestinationW2_0" arrivalPos="782.62" arrivalSpeed="24.54" duration="159.00" routeLength="3590.24" waitingTime="1.00" waitingCount="1" stopTime="0.00" timeLoss="20.43" rerouteNo="0" devices="tripinfo_n4-w2_0.0" vType="DEFAULT_VEHTYPE" speedFactor="1.12" vaporized=""/>
    <tripinfo id="e5-e1_0.0" depart="0.00" departLane="OrigionE5_0" departPos="5.10" departSpeed="0.00" departDelay="0.00" arrival="162.00" arrivalLane="DestinationE1_0" arrivalPos="250.56" arrivalSpeed="22.93" duration="162.00" routeLength="2162.05" waitingTime="33.00" waitingCount="2" stopTime="0.00" timeLoss="58.24" rerouteNo="0" devices="tripinfo_e5-e1_0.0" vType="DEFAULT_VEHTYPE" speedFactor="1.04" vaporized=""/>
    <tripinfo id="e5-e1_0.1" depart="7.00" departLane="OrigionE5_0" departPos="5.10" departSpeed="0.00" departDelay="-0.50" arrival="164.00" arrivalLane="DestinationE1_0" arrivalPos="250.56" arrivalSpeed="20.92" duration="157.00" routeLength="2162.05" waitingTime="19.00" waitingCount="2" stopTime="0.00" timeLoss="47.94" rerouteNo="0" devices="tripinfo_e5-e1_0.1" vType="DEFAULT_VEHTYPE" speedFactor="0.99" vaporized=""/>
    <tripinfo id="e5-e1_0.2" depart="15.00" departLane="OrigionE5_0" departPos="5.10" departSpeed="0.00" departDelay="0.00" arrival="166.00" arrivalLane="DestinationE1_0" arrivalPos="250.56" arrivalSpeed="22.79" duration="151.00" routeLength="2162.05" waitingTime="18.00" waitingCount="2" stopTime="0.00" timeLoss="45.42" rerouteNo="0" devices="tripinfo_e5-e1_0.2" vType="DEFAULT_VEHTYPE" speedFactor="1.03" vaporized=""/>
    <tripinfo id="e5-e1_0.3" depart="22.00" departLane="OrigionE5_0" departPos="5.10" departSpeed="0.00" departDelay="-0.50" arrival="168.00" arrivalLane="DestinationE1_0" arrivalPos="250.56" arrivalSpeed="18.00" duration="146.00" routeLength="2162.05" waitingTime="4.00" waitingCount="1" stopTime="0.00" timeLoss="21.41" rerouteNo="0" devices="tripinfo_e5-e1_0.3" vType="DEFAULT_VEHTYPE" speedFactor="0.86" vaporized=""/>
    <tripinfo id="w4-s1_0.7" depart="31.00" departLane="OrigionW4_0" departPos="5.10" departSpeed="0.00" departDelay="-0.50" arrival="170.00" arrivalLane="DestinationS1_1" arrivalPos="373.48" arrivalSpeed="27.53" duration="139.00" routeLength="2089.17" waitingTime="43.00" waitingCount="1" stopTime="0.00" timeLoss="63.03" rerouteNo="0" devices="tripinfo_w4-s1_0.7" vType="DEFAULT_VEHTYPE" speedFactor="0.99" vaporized=""/>
    <tripinfo id="e5-e1_0.4" depart="30.00" departLane="OrigionE5_0" departPos="5.10" departSpeed="0.00" departDelay="0.00" arrival="170.00" arrivalLane="DestinationE1_0" arrivalPos="250.56" arrivalSpeed="22.73" duration="140.00" routeLength="2162.05" waitingTime="3.00" waitingCount="1" stopTime="0.00" timeLoss="51.50" rerouteNo="0" devices="tripinfo_e5-e1_0.4" vType="DEFAULT_VEHTYPE" speedFactor="1.22" vaporized=""/>
    <tripinfo id="w4-s1_0.6" depart="27.00" departLane="OrigionW4_0" departPos="5.10" departSpeed="0.00" departDelay="0.00" arrival="172.00" arrivalLane="DestinationS1_0" arrivalPos="373.48" arrivalSpeed="25.17" duration="145.00" routeLength="2089.17" waitingTime="47.00" waitingCount="1" stopTime="0.00" timeLoss="63.94" rerouteNo="0" devices="tripinfo_w4-s1_0.6" vType="DEFAULT_VEHTYPE" speedFactor="0.93" vaporized=""/>
    <tripinfo id="w4-s1_0.8" depart="36.00" departLane="OrigionW4_0" departPos="5.10" departSpeed="0.00" departDelay="0.00" arrival="172.00" arrivalLane="DestinationS1_1" arrivalPos="373.48" arrivalSpeed="27.82" duration="136.00" routeLength="2089.17" waitingTime="39.00" waitingCount="1" stopTime="0.00" timeLoss="62.48" rerouteNo="0" devices="tripinfo_w4-s1_0.8" vType="DEFAULT_VEHTYPE" speedFactor="1.04" vaporized=""/>
    <tripinfo id="w4-s1_0.10" depart="45.00" departLane="OrigionW4_0" departPos="5.10" departSpeed="0.00" departDelay="0.00" arrival="173.00" arrivalLane="DestinationS1_1" arrivalPos="373.48" arrivalSpeed="30.15" duration="128.00" routeLength="2089.17" waitingTime="34.00" waitingCount="1" stopTime="0.00" timeLoss="66.49" rerouteNo="0" devices="tripinfo_w4-s1_0.10" vType="DEFAULT_VEHTYPE" speedFactor="1.23" vaporized=""/>
    <tripinfo id="w4-s1_0.12" depart="54.00" departLane="OrigionW4_0" departPos="5.10" departSpeed="0.00" departDelay="0.00" arrival="174.00" arrivalLane="DestinationS1_1" arrivalPos="373.48" arrivalSpeed="29.10" duration="120.00" routeLength="2089.17" waitingTime="24.00" waitingCount="1" stopTime="0.00" timeLoss="48.53" rerouteNo="0" devices="tripinfo_w4-s1_0.12" vType="DEFAULT_VEHTYPE" speedFactor="1.05" vaporized=""/>
    <tripinfo id="w4-s1_0.15" depart="67.00" departLane="OrigionW4_0" departPos="5.10" departSpeed="0.00" departDelay="-0.50" arrival="176.00" arrivalLane="DestinationS1_1" arrivalPos="373.48" arrivalSpeed="27.94" duration="109.00" routeLength="2089.17" waitingTime="12.00" waitingCount="1" stopTime="0.00" timeLoss="35.35" rerouteNo="0" devices="tripinfo_w4-s1_0.15" vType="DEFAULT_VEHTYPE" speedFactor="1.03" vaporized=""/>
    <tripinfo id="w4-s1_0.11" depart="49.00" departLane="OrigionW4_0" departPos="5.10" departSpeed="0.00" departDelay="-0.50" arrival="178.00" arrivalLane="DestinationS1_1" arrivalPos="373.48" arrivalSpeed="25.63" duration="129.00" routeLength="2089.17" waitingTime="23.00" waitingCount="1" stopTime="0.00" timeLoss="48.23" rerouteNo="0" devices="tripinfo_w4-s1_0.11" vType="DEFAULT_VEHTYPE" speedFactor="0.93" vaporized=""/>
    <tripinfo id="w4-s1_0.9" depart="40.00" departLane="OrigionW4_0" departPos="5.10" departSpeed="0.00" departDelay="-0.50" arrival="180.00" arrivalLane="DestinationS1_0" arrivalPos="373.48" arrivalSpeed="22.90" duration="140.00" routeLength="2089.17" waitingTime="32.00" waitingCount="1" stopTime="0.00" timeLoss="49.49" rerouteNo="0" devices="tripinfo_w4-s1_0.9" vType="DEFAULT_VEHTYPE" speedFactor="0.84" vaporized=""/>
    <tripinfo id="s4-n5_0.0" depart="0.00" departLane="OrigionS4_0" departPos="5.10" departSpeed="0.00" departDelay="0.00" arrival="186.00" arrivalLane="DestinationN5_0" arrivalPos="178.17" arrivalSpeed="13.35" duration="186.00" routeLength="3209.41" waitingTime="2.00" waitingCount="1" stopTime="0.00" timeLoss="39.23" rerouteNo="0" devices="tripinfo_s4-n5_0.0" vType="DEFAULT_VEHTYPE" speedFactor="0.97" vaporized=""/>
    <tripinfo id="s4-n5_0.1" depart="4.00" departLane="OrigionS4_0" departPos="5.10" departSpeed="0.00" departDelay="-0.50" arrival="193.00" arrivalLane="DestinationN5_0" arrivalPos="178.17" arrivalSpeed="11.15" duration="189.00" routeLength="3209.41" waitingTime="0.00" waitingCount="0" stopTime="0.00" timeLoss="28.01" rerouteNo="0" devices="tripinfo_s4-n5_0.1" vType="DEFAULT_VEHTYPE" speedFactor="0.89" vaporized=""/>
    <tripinfo id="s4-n5_0.2" depart="9.00" departLane="OrigionS4_0" departPos="5.10" departSpeed="0.00" departDelay="0.00" arrival="195.00" arrivalLane="DestinationN5_0" arrivalPos="178.17" arrivalSpeed="12.29" duration="186.00" routeLength="3209.41" waitingTime="0.00" waitingCount="0" stopTime="0.00" timeLoss="36.65" rerouteNo="0" devices="tripinfo_s4-n5_0.2" vType="DEFAULT_VEHTYPE" speedFactor="0.96" vaporized=""/>
    <tripinfo id="s1-w4_0.13" depart="58.00" departLane="OrigionS1_0" departPos="5.10" departSpeed="0.00" departDelay="-0.50" arrival="202.00" arrivalLane="DestinationW4_0" arrivalPos="242.47" arrivalSpeed="27.27" duration="144.00" routeLength="2089.17" waitingTime="46.00" waitingCount="1" stopTime="0.00" timeLoss="69.93" rerouteNo="0" devices="tripinfo_s1-w4_0.13" vType="DEFAULT_VEHTYPE" speedFactor="1.02" vaporized=""/>
    <tripinfo id="s1-w4_0.12" depart="54.00" departLane="OrigionS1_0" departPos="5.10" departSpeed="0.00" departDelay="0.00" arrival="203.00" arrivalLane="DestinationW4_1" arrivalPos="242.47" arrivalSpeed="30.44" duration="149.00" routeLength="2089.17" waitingTime="50.00" waitingCount="2" stopTime="0.00" timeLoss="80.24" rerouteNo="0" devices="tripinfo_s1-w4_0.12" vType="DEFAULT_VEHTYPE" speedFactor="1.10" vaporized=""/>
    <tripinfo id="n7-s3_0.0" depart="0.00" departLane="OrigionN7_0" departPos="5.10" departSpeed="0.00" departDelay="0.00" arrival="204.00" arrivalLane="DestinationS3_0" arrivalPos="924.28" arrivalSpeed="32.06" duration="204.00" routeLength="4886.27" waitingTime="31.00" waitingCount="1" stopTime="0.00" timeLoss="55.68" rerouteNo="0" devices="tripinfo_n7-s3_0.0" vType="DEFAULT_VEHTYPE" speedFactor="1.19" vaporized=""/>
    <tripinfo id="s1-w4_0.7" depart="31.00" departLane="OrigionS1_0" departPos="5.10" departSpeed="0.00" departDelay="-0.50" arrival="205.00" arrivalLane="DestinationW4_0" arrivalPos="242.47" arrivalSpeed="24.99" duration="174.00" routeLength="2089.17" waitingTime="58.00" waitingCount="2" stopTime="0.00" timeLoss="90.27" rerouteNo="0" devices="tripinfo_s1-w4_0.7" vType="DEFAULT_VEHTYPE" speedFactor="0.90" vaporized=""/>
    <tripinfo id="s1-w4_0.15" depart="67.00" departLane="OrigionS1_0" departPos="5.10" departSpeed="0.00" departDelay="-0.50" arrival="206.00" arrivalLane="DestinationW4_1" arrivalPos="242.47" arrivalSpeed="28.56" duration="139.00" routeLength="2089.17" waitingTime="42.00" waitingCount="1" stopTime="0.00" timeLoss="65.83" rerouteNo="0" devices="tripinfo_s1-w4_0.15" vType="DEFAULT_VEHTYPE" speedFactor="1.04" vaporized=""/>
    <tripinfo id="s1-w4_0.14" depart="63.00" departLane="OrigionS1_0" departPos="5.10" departSpeed="0.00" departDelay="0.00" arrival="206.00" arrivalLane="DestinationW4_0" arrivalPos="242.47" arrivalSpeed="26.11" duration="143.00" routeLength="2089.17" waitingTime="43.00" waitingCount="1" stopTime="0.00" timeLoss="78.42" rerouteNo="0" devices="tripinfo_s1-w4_0.14" vType="DEFAULT_VEHTYPE" speedFactor="1.16" vaporized=""/>
    <tripinfo id="s1-w4_0.17" depart="76.00" departLane="OrigionS1_0" departPos="5.10" departSpeed="0.00" departDelay="-0.50" arrival="208.00" arrivalLane="DestinationW4_0" arrivalPos="242.47" arrivalSpeed="25.96" duration="132.00" routeLength="2089.17" waitingTime="32.00" waitingCount="1" stopTime="0.00" timeLoss="53.28" rerouteNo="0" devices="tripinfo_s1-w4_0.17" vType="DEFAULT_VEHTYPE" speedFactor="0.96" vaporized=""/>
    <tripinfo id="s1-w4_0.16" depart="72.00" departLane="OrigionS1_0" departPos="5.10" departSpeed="0.00" departDelay="0.00" arrival="209.00" arrivalLane="DestinationW4_1" arrivalPos="242.47" arrivalSpeed="25.03" duration="137.00" routeLength="2089.17" waitingTime="36.00" waitingCount="1" stopTime="0.00" timeLoss="55.25" rerouteNo="0" devices="tripinfo_s1-w4_0.16" vType="DEFAULT_VEHTYPE" speedFactor="0.92" vaporized=""/>
    <tripinfo id="s1-w4_0.18" depart="81.00" departLane="OrigionS1_0" departPos="5.10" departSpeed="0.00" departDelay="0.00" arrival="210.00" arrivalLane="DestinationW4_0" arrivalPos="242.47" arrivalSpeed="27.06" duration="129.00" routeLength="2089.17" waitingTime="28.00" waitingCount="2" stopTime="0.00" timeLoss="55.82" rerouteNo="0" devices="tripinfo_s1-w4_0.18" vType="DEFAULT_VEHTYPE" speedFactor="1.04" vaporized=""/>
    <tripinfo id="w2-n6_0.1" depart="7.00" departLane="OrigionW2_0" departPos="5.10" departSpeed="0.00" departDelay="-0.50" arrival="211.00" arrivalLane="DestinationN6_0" arrivalPos="784.86" arrivalSpeed="25.12" duration="204.00" routeLength="4002.77" waitingTime="32.00" waitingCount="1" stopTime="0.00" timeLoss="64.06" rerouteNo="0" devices="tripinfo_w2-n6_0.1" vType="DEFAULT_VEHTYPE" speedFactor="1.14" vaporized=""/>
    <tripinfo id="w2-n6_0.0" depart="0.00" departLane="OrigionW2_0" departPos="5.10" departSpeed="0.00" departDelay="0.00" arrival="218.00" arrivalLane="DestinationN6_0" arrivalPos="784.86" arrivalSpeed="22.17" duration="218.00" routeLength="4002.77" waitingTime="27.00" waitingCount="1" stopTime="0.00" timeLoss="61.54" rerouteNo="0" devices="tripinfo_w2-n6_0.0" vType="DEFAULT_VEHTYPE" speedFactor="1.01" vaporized=""/>
    <tripinfo id="e5-e1_0.5" depart="37.00" departLane="OrigionE5_0" departPos="5.10" departSpeed="0.00" departDelay="-0.50" arrival="223.00" arrivalLane="DestinationE1_0" arrivalPos="250.56" arrivalSpeed="21.03" duration="186.00" routeLength="2162.05" waitingTime="46.00" waitingCount="2" stopTime="0.00" timeLoss="76.93" rerouteNo="0" devices="tripinfo_e5-e1_0.5" vType="DEFAULT_VEHTYPE" speedFactor="1.00" vaporized=""/>
    <tripinfo id="e5-e1_0.6" depart="45.00" departLane="OrigionE5_0" departPos="5.10" departSpeed="0.00" departDelay="0.00" arrival="224.00" arrivalLane="DestinationE1_0" arrivalPos="250.56" arrivalSpeed="20.92" duration="179.00" routeLength="2162.05" waitingTime="39.00" waitingCount="2" stopTime="0.00" timeLoss="66.74" rerouteNo="0" devices="tripinfo_e5-e1_0.6" vType="DEFAULT_VEHTYPE" speedFactor="0.96" vaporized=""/>
    <tripinfo id="e5-e1_0.7" depart="52.00" departLane="OrigionE5_0" departPos="5.10" departSpeed="0.00" departDelay="-0.50" arrival="226.00" arrivalLane="DestinationE1_0" arrivalPos="250.56" arrivalSpeed="18.93" duration="174.00" routeLength="2162.05" waitingTime="23.00" waitingCount="2" stopTime="0.00" timeLoss="53.49" rerouteNo="0" devices="tripinfo_e5-e1_0.7" vType="DEFAULT_VEHTYPE" speedFactor="0.89" vaporized=""/>
    <tripinfo id="e5-e1_0.8" depart="60.00" departLane="OrigionE5_0" departPos="5.10" departSpeed="0.00" departDelay="0.00" arrival="228.00" arrivalLane="DestinationE1_0" arrivalPos="250.56" arrivalSpeed="21.65" duration="168.00" routeLength="2162.05" waitingTime="21.00" waitingCount="2" stopTime="0.00" timeLoss="60.96" rerouteNo="0" devices="tripinfo_e5-e1_0.8" vType="DEFAULT_VEHTYPE" speedFactor="1.01" vaporized=""/>
    <tripinfo id="e5-e1_0.9" depart="67.00" departLane="OrigionE5_0" departPos="5.10" departSpeed="0.00" departDelay="-0.50" arrival="229.00" arrivalLane="DestinationE1_0" arrivalPos="250.56" arrivalSpeed="22.93" duration="162.00" routeLength="2162.05" waitingTime="23.00" waitingCount="2" stopTime="0.00" timeLoss="60.66" rerouteNo="0" devices="tripinfo_e5-e1_0.9" vType="DEFAULT_VEHTYPE" speedFactor="1.06" vaporized=""/>
    <tripinfo id="e5-e1_0.10" depart="75.00" departLane="OrigionE5_0" departPos="5.10" departSpeed="0.00" departDelay="0.00" arrival="231.00" arrivalLane="DestinationE1_0" arrivalPos="250.56" arrivalSpeed="22.44" duration="156.00" routeLength="2162.05" waitingTime="16.00" waitingCount="1" stopTime="0.00" timeLoss="50.48" rerouteNo="0" devices="tripinfo_e5-e1_0.10" vType="DEFAULT_VEHTYPE" speedFactor="1.03" vaporized=""/>
    <tripinfo id="w4-s1_0.13" depart="58.00" departLane="OrigionW4_0" departPos="5.10" departSpeed="0.00" departDelay="-0.50" arrival="232.00" arrivalLane="DestinationS1_1" arrivalPos="373.48" arrivalSpeed="25.67" duration="174.00" routeLength="2089.17" waitingTime="67.00" waitingCount="2" stopTime="0.00" timeLoss="93.06" rerouteNo="0" devices="tripinfo_w4-s1_0.13" vType="DEFAULT_VEHTYPE" speedFactor="0.93" vaporized=""/>
    <tripinfo id="w4-s1_0.16" depart="72.00" departLane="OrigionW4_0" departPos="5.10" departSpeed="0.00" departDelay="0.00" arrival="233.00" arrivalLane="DestinationS1_0" arrivalPos="373.48" arrivalSpeed="26.43" duration="161.00" routeLength="2089.17" waitingTime="55.00" waitingCount="2" stopTime="0.00" timeLoss="81.46" rerouteNo="0" devices="tripinfo_w4-s1_0.16" vType="DEFAULT_VEHTYPE" speedFactor="0.95" vaporized=""/>
    <tripinfo id="w4-s1_0.14" depart="63.00" departLane="OrigionW4_0" departPos="5.10" departSpeed="0.00" departDelay="0.00" arrival="233.00" arrivalLane="DestinationS1_1" arrivalPos="373.48" arrivalSpeed="26.41" duration="170.00" routeLength="2089.17" waitingTime="61.00" waitingCount="2" stopTime="0.00" timeLoss="90.95" rerouteNo="0" devices="tripinfo_w4-s1_0.14" vType="DEFAULT_VEHTYPE" speedFactor="0.95" vaporized=""/>
    <tripinfo id="n4-w2_0.1" depart="4.00" departLane="OrigionN4_0" departPos="5.10" departSpeed="0.00" departDelay="-0.50" arrival="233.00" arrivalLane="DestinationW2_0" arrivalPos="782.62" arrivalSpeed="23.54" duration="229.00" routeLength="3590.24" waitingTime="53.00" waitingCount="2" stopTime="0.00" timeLoss="84.87" rerouteNo="0" devices="tripinfo_n4-w2_0.1" vType="DEFAULT_VEHTYPE" speedFactor="1.07" vaporized=""/>
    <tripinfo id="e5-e1_0.11" depart="82.00" departLane="OrigionE5_0" departPos="5.10" departSpeed="0.00" departDelay="-0.50" arrival="233.00" arrivalLane="DestinationE1_0" arrivalPos="250.56" arrivalSpeed="22.74" duration="151.00" routeLength="2162.05" waitingTime="16.00" waitingCount="1" stopTime="0.00" timeLoss="45.05" rerouteNo="0" devices="tripinfo_e5-e1_0.11" vType="DEFAULT_VEHTYPE" speedFactor="1.03" vaporized=""/>
    <tripinfo id="e5-e1_0.12" depart="90.00" departLane="OrigionE5_0" departPos="5.10" departSpeed="0.00" departDelay="0.00" arrival="234.00" arrivalLane="DestinationE1_0" arrivalPos="250.56" arrivalSpeed="22.60" duration="144.00" routeLength="2162.05" waitingTime="14.00" waitingCount="1" stopTime="0.00" timeLoss="41.89" rerouteNo="0" devices="tripinfo_e5-e1_0.12" vType="DEFAULT_VEHTYPE" speedFactor="1.06" vaporized=""/>
    <tripinfo id="w4-s1_0.19" depart="85.00" departLane="OrigionW4_0" departPos="5.10" departSpeed="0.00" departDelay="-0.50" arrival="235.00" arrivalLane="DestinationS1_0" arrivalPos="373.48" arrivalSpeed="27.34" duration="150.00" routeLength="2089.17" waitingTime="47.00" waitingCount="1" stopTime="0.00" timeLoss="81.51" rerouteNo="0" devices="tripinfo_w4-s1_0.19" vType="DEFAULT_VEHTYPE" speedFactor="1.10" vaporized=""/>
    <tripinfo id="w4-s1_0.17" depart="76.00" departLane="OrigionW4_0" departPos="5.10" departSpeed="0.00" departDelay="-0.50" arrival="235.00" arrivalLane="DestinationS1_1" arrivalPos="373.48" arrivalSpeed="28.76" duration="159.00" routeLength="2089.17" waitingTime="50.00" waitingCount="3" stopTime="0.00" timeLoss="91.92" rerouteNo="0" devices="tripinfo_w4-s1_0.17" vType="DEFAULT_VEHTYPE" speedFactor="1.13" vaporized=""/>
    <tripinfo id="w4-s1_0.18" depart="81.00" departLane="OrigionW4_0" departPos="5.10" departSpeed="0.00" departDelay="0.00" arrival="236.00" arrivalLane="DestinationS1_1" arrivalPos="373.48" arrivalSpeed="28.97" duration="155.00" routeLength="2089.17" waitingTime="47.00" waitingCount="2" stopTime="0.00" timeLoss="86.91" rerouteNo="0" devices="tripinfo_w4-s1_0.18" vType="DEFAULT_VEHTYPE" speedFactor="1.11" vaporized=""/>
    <tripinfo id="w4-s1_0.21" depart="94.00" departLane="OrigionW4_0" departPos="5.10" departSpeed="0.00" departDelay="-0.50" arrival="237.00" arrivalLane="DestinationS1_0" arrivalPos="373.48" arrivalSpeed="29.41" duration="143.00" routeLength="2089.17" waitingTime="40.00" waitingCount="1" stopTime="0.00" timeLoss="76.12" rerouteNo="0" devices="tripinfo_w4-s1_0.21" vType="DEFAULT_VEHTYPE" speedFactor="1.13" vaporized=""/>
    <tripinfo id="n4-w2_0.3" depart="13.00" departLane="OrigionN4_0" departPos="5.10" departSpeed="0.00" departDelay="-0.50" arrival="237.00" arrivalLane="DestinationW2_0" arrivalPos="782.62" arrivalSpeed="22.27" duration="224.00" routeLength="3590.24" waitingTime="36.00" waitingCount="1" stopTime="0.00" timeLoss="71.60" rerouteNo="0" devices="tripinfo_n4-w2_0.3" vType="DEFAULT_VEHTYPE" speedFactor="1.01" vaporized=""/>
    <tripinfo id="w4-s1_0.20" depart="90.00" departLane="OrigionW4_0" departPos="5.10" departSpeed="0.00" departDelay="0.00" arrival="238.00" arrivalLane="DestinationS1_1" arrivalPos="373.48" arrivalSpeed="27.05" duration="148.00" routeLength="2089.17" waitingTime="43.00" waitingCount="1" stopTime="0.00" timeLoss="71.63" rerouteNo="0" devices="tripinfo_w4-s1_0.20" vType="DEFAULT_VEHTYPE" speedFactor="1.00" vaporized=""/>
    <tripinfo id="w9-n1_0.0" depart="3.00" departLane="OrigionW9_0" departPos="5.10" departSpeed="0.00" departDelay="3.00" arrival="239.00" arrivalLane="DestinationN1_0" arrivalPos="1187.84" arrivalSpeed="31.32" duration="236.00" routeLength="4428.25" waitingTime="44.00" waitingCount="3" stopTime="0.00" timeLoss="98.61" rerouteNo="0" devices="tripinfo_w9-n1_0.0" vType="DEFAULT_VEHTYPE" speedFactor="1.16" vaporized=""/>
    <tripinfo id="n4-w2_0.2" depart="9.00" departLane="OrigionN4_0" departPos="5.10" departSpeed="0.00" departDelay="0.00" arrival="245.00" arrivalLane="DestinationW2_0" arrivalPos="782.62" arrivalSpeed="19.36" duration="236.00" routeLength="3590.24" waitingTime="37.00" waitingCount="1" stopTime="0.00" timeLoss="63.28" rerouteNo="0" devices="tripinfo_n4-w2_0.2" vType="DEFAULT_VEHTYPE" speedFactor="0.90" vaporized=""/>
    <tripinfo id="n4-w2_0.4" depart="18.00" departLane="OrigionN4_0" departPos="5.10" departSpeed="0.00" departDelay="0.00" arrival="246.00" arrivalLane="DestinationW2_0" arrivalPos="782.62" arrivalSpeed="21.12" duration="228.00" routeLength="3590.24" waitingTime="32.00" waitingCount="1" stopTime="0.00" timeLoss="67.33" rerouteNo="0" devices="tripinfo_n4-w2_0.4" vType="DEFAULT_VEHTYPE" speedFactor="0.96" vaporized=""/>
    <tripinfo id="e3-s5_0.1" depart="10.00" departLane="OrigionE3_0" departPos="5.10" departSpeed="0.00" departDelay="2.50" arrival="253.00" arrivalLane="DestinationS5_0" arrivalPos="746.72" arrivalSpeed="18.77" duration="243.00" routeLength="3631.94" waitingTime="52.00" waitingCount="3" stopTime="0.00" timeLoss="88.96" rerouteNo="0" devices="tripinfo_e3-s5_0.1" vType="DEFAULT_VEHTYPE" speedFactor="0.90" vaporized=""/>
    <tripinfo id="e3-s5_0.0" depart="3.00" departLane="OrigionE3_0" departPos="5.10" departSpeed="0.00" departDelay="3.00" arrival="254.00" arrivalLane="DestinationS5_0" arrivalPos="746.72" arrivalSpeed="20.97" duration="251.00" routeLength="3631.94" waitingTime="62.00" waitingCount="3" stopTime="0.00" timeLoss="117.93" rerouteNo="0" devices="tripinfo_e3-s5_0.0" vType="DEFAULT_VEHTYPE" speedFactor="1.04" vaporized=""/>