<?xml version="1.0" encoding="UTF-8"?>

<!-- generated on Mon Dec 10 17:19:58 2018 by Eclipse SUMO Version v1_0_1+0999-ba34606b5d
<configuration xmlns:xsi="http://www.w3.org/2001/XMLSchema-instance" xsi:noNamespaceSchemaLocation="http://sumo.dlr.de/xsd/sumoConfiguration.xsd">

    <input>
        <net-file value="Chj_final.net.xml"/>
        <route-files value="Chj_Dynamic.rou.xml"/>
        <additional-files value="loops.xml"/>
    </input>

    <output>
        <queue-output value="queue.xml"/>
        <summary-output value="summary.xml"/>
        <tripinfo-output value="tripinfo.xml"/>
    </output>

    <time>
        <begin value="0"/>
        <end value="3600"/>
    </time>

    <report>
        <xml-validation value="never"/>
        <duration-log.disable value="true"/>
        <no-step-log value="true"/>
    </report>

    <traci_server>
        <remote-port value="56495"/>
    </traci_server>

    <random_number>
        <seed value="89"/>
    </random_number>

</configuration>
-->

<tripinfos xmlns:xsi="http://www.w3.org/2001/XMLSchema-instance" xsi:noNamespaceSchemaLocation="http://sumo.dlr.de/xsd/tripinfo_file.xsd">
    <tripinfo id="s1-w4_0.0" depart="0.00" departLane="OrigionS1_0" departPos="5.10" departSpeed="0.00" departDelay="0.00" arrival="132.00" arrivalLane="DestinationW4_0" arrivalPos="242.47" arrivalSpeed="26.08" duration="132.00" routeLength="2089.17" waitingTime="28.00" waitingCount="2" stopTime="0.00" timeLoss="60.46" rerouteNo="0" devices="tripinfo_s1-w4_0.0" vType="DEFAULT_VEHTYPE" speedFactor="1.06" vaporized=""/>
    <tripinfo id="s1-w4_0.1" depart="4.00" departLane="OrigionS1_0" departPos="5.10" departSpeed="0.00" departDelay="-0.50" arrival="132.00" arrivalLane="DestinationW4_1" arrivalPos="242.47" arrivalSpeed="25.53" duration="128.00" routeLength="2089.17" waitingTime="21.00" waitingCount="2" stopTime="0.00" timeLoss="49.17" rerouteNo="0" devices="tripinfo_s1-w4_0.1" vType="DEFAULT_VEHTYPE" speedFactor="0.97" vaporized=""/>
    <tripinfo id="s1-w4_0.3" depart="13.00" departLane="OrigionS1_0" departPos="5.10" departSpeed="0.00" departDelay="-0.50" arrival="134.00" arrivalLane="DestinationW4_0" arrivalPos="242.47" arrivalSpeed="24.35" duration="121.00" routeLength="2089.17" waitingTime="12.00" waitingCount="1" stopTime="0.00" timeLoss="38.51" rerouteNo="0" devices="tripinfo_s1-w4_0.3" vType="DEFAULT_VEHTYPE" speedFactor="0.91" vaporized=""/>
    <tripinfo id="s1-w4_0.2" depart="9.00" departLane="OrigionS1_0" departPos="5.10" departSpeed="0.00" departDelay="0.00" arrival="134.00" arrivalLane="DestinationW4_1" arrivalPos="242.47" arrivalSpeed="25.02" duration="125.00" routeLength="2089.17" waitingTime="15.00" waitingCount="2" stopTime="0.00" timeLoss="43.62" rerouteNo="0" devices="tripinfo_s1-w4_0.2" vType="DEFAULT_VEHTYPE" speedFactor="0.93" vaporized=""/>
    <tripinfo id="s1-w4_0.4" depart="18.00" departLane="OrigionS1_0" departPos="5.10" departSpeed="0.00" departDelay="0.00" arrival="135.00" arrivalLane="DestinationW4_1" arrivalPos="242.47" arrivalSpeed="25.96" duration="117.00" routeLength="2089.17" waitingTime="13.00" waitingCount="1" stopTime="0.00" timeLoss="37.83" rerouteNo="0" devices="tripinfo_s1-w4_0.4" vType="DEFAULT_VEHTYPE" speedFactor="0.95" vaporized=""/>
    <tripinfo id="w4-s1_0.3" depart="13.00" departLane="OrigionW4_0" departPos="5.10" departSpeed="0.00" departDelay="-0.50" arrival="143.00" arrivalLane="DestinationS1_1" arrivalPos="373.48" arrivalSpeed="32.30" duration="130.00" routeLength="2089.17" waitingTime="39.00" waitingCount="1" stopTime="0.00" timeLoss="65.98" rerouteNo="0" devices="tripinfo_w4-s1_0.3" vType="DEFAULT_VEHTYPE" speedFactor="1.18" vaporized=""/>
    <tripinfo id="w4-s1_0.1" depart="4.00" departLane="OrigionW4_0" departPos="5.10" departSpeed="0.00" departDelay="-0.50" arrival="145.00" arrivalLane="DestinationS1_0" arrivalPos="373.48" arrivalSpeed="29.69" duration="141.00" routeLength="2089.17" waitingTime="40.00" waitingCount="1" stopTime="0.00" timeLoss="72.25" rerouteNo="0" devices="tripinfo_w4-s1_0.1" vType="DEFAULT_VEHTYPE" speedFactor="1.10" vaporized=""/>
    <tripinfo id="w4-s1_0.4" depart="18.00" departLane="OrigionW4_0" departPos="5.10" departSpeed="0.00" departDelay="0.00" arrival="148.00" arrivalLane="DestinationS1_1" arrivalPos="373.48" arrivalSpeed="27.60" duration="130.00" routeLength="2089.17" waitingTime="37.00" waitingCount="1" stopTime="0.00" timeLoss="55.93" rerouteNo="0" devices="tripinfo_w4-s1_0.4" vType="DEFAULT_VEHTYPE" speedFactor="1.03" vaporized=""/>
    <tripinfo id="w4-s1_0.0" depart="0.00" departLane="OrigionW4_0" departPos="5.10" departSpeed="0.00" departDelay="0.00" arrival="151.00" arrivalLane="DestinationS1_0" arrivalPos="373.48" arrivalSpeed="24.24" duration="151.00" routeLength="2089.17" waitingTime="39.00" waitingCount="2" stopTime="0.00" timeLoss="66.06" rerouteNo="0" devices="tripinfo_w4-s1_0.0" vType="DEFAULT_VEHTYPE" speedFactor="0.89" vaporized=""/>
    <tripinfo id="e5-e1_0.0" depart="0.00" departLane="OrigionE5_0" departPos="5.10" departSpeed="0.00" departDelay="0.00" arrival="151.00" arrivalLane="DestinationE1_0" arrivalPos="250.56" arrivalSpeed="22.65" duration="151.00" routeLength="2162.05" waitingTime="28.00" waitingCount="1" stopTime="0.00" timeLoss="46.51" rerouteNo="0" devices="tripinfo_e5-e1_0.0" vType="DEFAULT_VEHTYPE" speedFactor="1.04" vaporized=""/>
    <tripinfo id="w4-s1_0.5" depart="22.00" departLane="OrigionW4_0" departPos="5.10" departSpeed="0.00" departDelay="-0.50" arrival="154.00" arrivalLane="DestinationS1_1" arrivalPos="373.48" arrivalSpeed="22.20" duration="132.00" routeLength="2089.17" waitingTime="25.00" waitingCount="1" stopTime="0.00" timeLoss="42.39" rerouteNo="0" devices="tripinfo_w4-s1_0.5" vType="DEFAULT_VEHTYPE" speedFactor="0.84" vaporized=""/>
    <tripinfo id="w4-s1_0.2" depart="9.00" departLane="OrigionW4_0" departPos="5.10" departSpeed="0.00" departDelay="0.00" arrival="155.00" arrivalLane="DestinationS1_0" arrivalPos="373.48" arrivalSpeed="25.13" duration="146.00" routeLength="2089.17" waitingTime="37.00" waitingCount="1" stopTime="0.00" timeLoss="62.02" rerouteNo="0" devices="tripinfo_w4-s1_0.2" vType="DEFAULT_VEHTYPE" speedFactor="0.91" vaporized=""/>
    <tripinfo id="e5-e1_0.1" depart="7.00" departLane="OrigionE5_0" departPos="5.10" departSpeed="0.00" departDelay="-0.50" arrival="155.00" arrivalLane="DestinationE1_0" arrivalPos="250.56" arrivalSpeed="20.33" duration="148.00" routeLength="2162.05" waitingTime="15.00" waitingCount="1" stopTime="0.00" timeLoss="34.42" rerouteNo="0" devices="tripinfo_e5-e1_0.1" vType="DEFAULT_VEHTYPE" speedFactor="0.95" vaporized=""/>
    <tripinfo id="n4-w2_0.0" depart="0.00" departLane="OrigionN4_0" departPos="5.10" departSpeed="0.00" departDelay="0.00" arrival="170.00" arrivalLane="DestinationW2_0" arrivalPos="782.62" arrivalSpeed="21.28" duration="170.00" routeLength="3590.24" waitingTime="0.00" waitingCount="0" stopTime="0.00" timeLoss="11.22" rerouteNo="0" devices="tripinfo_n4-w2_0.0" vType="DEFAULT_VEHTYPE" speedFactor="0.97" vaporized=""/>
    <tripinfo id="s1-w4_0.5" depart="22.00" departLane="OrigionS1_0" departPos="5.10" departSpeed="0.00" departDelay="-0.50" arrival="190.00" arrivalLane="DestinationW4_0" arrivalPos="242.47" arrivalSpeed="28.43" duration="168.00" routeLength="2089.17" waitingTime="66.00" waitingCount="2" stopTime="0.00" timeLoss="95.37" rerouteNo="0" devices="tripinfo_s1-w4_0.5" vType="DEFAULT_VEHTYPE" speedFactor="1.05" vaporized=""/>
    <tripinfo id="s1-w4_0.7" depart="31.00" departLane="OrigionS1_0" departPos="5.10" departSpeed="0.00" departDelay="-0.50" arrival="192.00" arrivalLane="DestinationW4_1" arrivalPos="242.47" arrivalSpeed="28.79" duration="161.00" routeLength="2089.17" waitingTime="54.00" waitingCount="2" stopTime="0.00" timeLoss="88.57" rerouteNo="0" devices="tripinfo_s1-w4_0.7" vType="DEFAULT_VEHTYPE" speedFactor="1.04" vaporized=""/>
    <tripinfo id="s1-w4_0.6" depart="27.00" departLane="OrigionS1_0" departPos="5.10" departSpeed="0.00" departDelay="0.00" arrival="193.00" arrivalLane="DestinationW4_0" arrivalPos="242.47" arrivalSpeed="25.28" duration="166.00" routeLength="2089.17" waitingTime="58.00" waitingCount="2" stopTime="0.00" timeLoss="86.21" rerouteNo="0" devices="tripinfo_s1-w4_0.6" vType="DEFAULT_VEHTYPE" speedFactor="0.95" vaporized=""/>
    <tripinfo id="s1-w4_0.8" depart="36.00" departLane="OrigionS1_0" departPos="5.10" departSpeed="0.00" departDelay="0.00" arrival="194.00" arrivalLane="DestinationW4_0" arrivalPos="242.47" arrivalSpeed="27.14" duration="158.00" routeLength="2089.17" waitingTime="49.00" waitingCount="2" stopTime="0.00" timeLoss="87.48" rerouteNo="0" devices="tripinfo_s1-w4_0.8" vType="DEFAULT_VEHTYPE" speedFactor="1.07" vaporized=""/>
    <tripinfo id="s1-w4_0.9" depart="40.00" departLane="OrigionS1_0" departPos="5.10" departSpeed="0.00" departDelay="-0.50" arrival="195.00" arrivalLane="DestinationW4_1" arrivalPos="242.47" arrivalSpeed="26.36" duration="155.00" routeLength="2089.17" waitingTime="44.00" waitingCount="2" stopTime="0.00" timeLoss="76.83" rerouteNo="0" devices="tripinfo_s1-w4_0.9" vType="DEFAULT_VEHTYPE" speedFactor="0.96" vaporized=""/>
    <tripinfo id="s1-w4_0.11" depart="49.00" departLane="OrigionS1_0" departPos="5.10" departSpeed="0.00" departDelay="-0.50" arrival="196.00" arrivalLane="DestinationW4_0" arrivalPos="242.47" arrivalSpeed="27.34" duration="147.00" routeLength="2089.17" waitingTime="37.00" waitingCount="2" stopTime="0.00" timeLoss="73.68" rerouteNo="0" devices="tripinfo_s1-w4_0.11" vType="DEFAULT_VEHTYPE" speedFactor="1.04" vaporized=""/>
    <tripinfo id="s1-w4_0.12" depart="54.00" departLane="OrigionS1_0" departPos="5.10" departSpeed="0.00" departDelay="0.00" arrival="198.00" arrivalLane="DestinationW4_1" arrivalPos="242.47" arrivalSpeed="29.01" duration="144.00" routeLength="2089.17" waitingTime="29.00" waitingCount="2" stopTime="0.00" timeLoss="73.47" rerouteNo="0" devices="tripinfo_s1-w4_0.12" vType="DEFAULT_VEHTYPE" speedFactor="1.07" vaporized=""/>
    <tripinfo id="s1-w4_0.10" depart="45.00" departLane="OrigionS1_0" departPos="5.10" departSpeed="0.00" departDelay="0.00" arrival="199.00" arrivalLane="DestinationW4_0" arrivalPos="242.47" arrivalSpeed="24.29" duration="154.00" routeLength="2089.17" waitingTime="38.00" waitingCount="2" stopTime="0.00" timeLoss="68.33" rerouteNo="0" devices="tripinfo_s1-w4_0.10" vType="DEFAULT_VEHTYPE" speedFactor="0.89" vaporized=""/>
    <tripinfo id="s4-n5_0.0" depart="0.00" departLane="OrigionS4_0" departPos="5.10" departSpeed="0.00" departDelay="0.00" arrival="200.00" arrivalLane="DestinationN5_0" arrivalPos="178.17" arrivalSpeed="13.61" duration="200.00" routeLength="3209.41" waitingTime="7.00" waitingCount="3" stopTime="0.00" timeLoss="54.84" rerouteNo="0" devices="tripinfo_s4-n5_0.0" vType="DEFAULT_VEHTYPE" speedFactor="0.98" vaporized=""/>
    <tripinfo id="e3-s5_0.1" depart="10.00" departLane="OrigionE3_0" departPos="5.10" departSpeed="0.00" departDelay="2.50" arrival="202.00" arrivalLane="DestinationS5_0" arrivalPos="746.72" arrivalSpeed="19.40" duration="192.00" routeLength="3631.94" waitingTime="9.00" waitingCount="2" stopTime="0.00" timeLoss="42.45" rerouteNo="0" devices="tripinfo_e3-s5_0.1" vType="DEFAULT_VEHTYPE" speedFactor="0.92" vaporized=""/>
    <tripinfo id="e3-s5_0.0" depart="2.00" departLane="OrigionE3_0" departPos="5.10" departSpeed="0.00" departDelay="2.00" arrival="204.00" arrivalLane="DestinationS5_0" arrivalPos="746.72" arrivalSpeed="19.36" duration="202.00" routeLength="3631.94" waitingTime="16.00" waitingCount="2" stopTime="0.00" timeLoss="53.83" rerouteNo="0" devices="tripinfo_e3-s5_0.0" vType="DEFAULT_VEHTYPE" speedFactor="0.93" vaporized=""/>
    <tripinfo id="w4-s1_0.9" depart="40.00" departLane="OrigionW4_0" departPos="5.10" departSpeed="0.00" departDelay="-0.50" arrival="206.00" arrivalLane="DestinationS1_0" arrivalPos="373.48" arrivalSpeed="29.04" duration="166.00" routeLength="2089.17" waitingTime="59.00" waitingCount="2" stopTime="0.00" timeLoss="94.16" rerouteNo="0" devices="tripinfo_w4-s1_0.9" vType="DEFAULT_VEHTYPE" speedFactor="1.06" vaporized=""/>
    <tripinfo id="e3-s5_0.2" depart="18.00" departLane="OrigionE3_0" departPos="5.10" departSpeed="0.00" departDelay="3.00" arrival="206.00" arrivalLane="DestinationS5_0" arrivalPos="746.72" arrivalSpeed="20.22" duration="188.00" routeLength="3631.94" waitingTime="5.00" waitingCount="1" stopTime="0.00" timeLoss="40.68" rerouteNo="0" devices="tripinfo_e3-s5_0.2" vType="DEFAULT_VEHTYPE" speedFactor="0.94" vaporized=""/>
    <tripinfo id="w8-e4_0.0" depart="0.00" departLane="OrigionW8_0" departPos="5.10" departSpeed="0.00" departDelay="0.00" arrival="211.00" arrivalLane="DestinationE4_0" arrivalPos="384.36" arrivalSpeed="20.84" duration="211.00" routeLength="3459.08" waitingTime="24.00" waitingCount="1" stopTime="0.00" timeLoss="47.02" rerouteNo="0" devices="tripinfo_w8-e4_0.0" vType="DEFAULT_VEHTYPE" speedFactor="0.95" vaporized=""/>
    <tripinfo id="w4-s1_0.10" depart="45.00" departLane="OrigionW4_0" departPos="5.10" departSpeed="0.00" departDelay="0.00" arrival="212.00" arrivalLane="DestinationS1_1" arrivalPos="373.48" arrivalSpeed="22.87" duration="167.00" routeLength="2089.17" waitingTime="52.00" waitingCount="2" stopTime="0.00" timeLoss="79.88" rerouteNo="0" devices="tripinfo_w4-s1_0.10" vType="DEFAULT_VEHTYPE" speedFactor="0.86" vaporized=""/>
    <tripinfo id="w4-s1_0.7" depart="31.00" departLane="OrigionW4_0" departPos="5.10" departSpeed="0.00" departDelay="-0.50" arrival="212.00" arrivalLane="DestinationS1_0" arrivalPos="373.48" arrivalSpeed="22.43" duration="181.00" routeLength="2089.17" waitingTime="63.00" waitingCount="2" stopTime="0.00" timeLoss="90.23" rerouteNo="0" devices="tripinfo_w4-s1_0.7" vType="DEFAULT_VEHTYPE" speedFactor="0.83" vaporized=""/>
    <tripinfo id="w8-e4_0.1" depart="4.00" departLane="OrigionW8_0" departPos="5.10" departSpeed="0.00" departDelay="-0.50" arrival="212.00" arrivalLane="DestinationE4_0" arrivalPos="384.36" arrivalSpeed="21.75" duration="208.00" routeLength="3459.08" waitingTime="22.00" waitingCount="1" stopTime="0.00" timeLoss="58.78" rerouteNo="0" devices="tripinfo_w8-e4_0.1" vType="DEFAULT_VEHTYPE" speedFactor="1.04" vaporized=""/>
    <tripinfo id="e5-e1_0.2" depart="15.00" departLane="OrigionE5_0" departPos="5.10" departSpeed="0.00" departDelay="0.00" arrival="212.00" arrivalLane="DestinationE1_0" arrivalPos="250.56" arrivalSpeed="21.71" duration="197.00" routeLength="2162.05" waitingTime="63.00" waitingCount="2" stopTime="0.00" timeLoss="88.44" rerouteNo="0" devices="tripinfo_e5-e1_0.2" vType="DEFAULT_VEHTYPE" speedFactor="1.00" vaporized=""/>
    <tripinfo id="s4-n5_0.1" depart="4.00" departLane="OrigionS4_0" departPos="5.10" departSpeed="0.00" departDelay="-0.50" arrival="213.00" arrivalLane="DestinationN5_0" arrivalPos="178.17" arrivalSpeed="10.10" duration="209.00" routeLength="3209.41" waitingTime="1.00" waitingCount="1" stopTime="0.00" timeLoss="27.55" rerouteNo="0" devices="tripinfo_s4-n5_0.1" vType="DEFAULT_VEHTYPE" speedFactor="0.79" vaporized=""/>
    <tripinfo id="e5-e1_0.3" depart="22.00" departLane="OrigionE5_0" departPos="5.10" departSpeed="0.00" departDelay="-0.50" arrival="213.00" arrivalLane="DestinationE1_0" arrivalPos="250.56" arrivalSpeed="24.23" duration="191.00" routeLength="2162.05" waitingTime="61.00" waitingCount="2" stopTime="0.00" timeLoss="93.97" rerouteNo="0" devices="tripinfo_e5-e1_0.3" vType="DEFAULT_VEHTYPE" speedFactor="1.12" vaporized=""/>
    <tripinfo id="w4-s1_0.12" depart="54.00" departLane="OrigionW4_0" departPos="5.10" departSpeed="0.00" departDelay="0.00" arrival="214.00" arrivalLane="DestinationS1_1" arrivalPos="373.48" arrivalSpeed="24.24" duration="160.00" routeLength="2089.17" waitingTime="44.00" waitingCount="2" stopTime="0.00" timeLoss="76.03" rerouteNo="0" devices="tripinfo_w4-s1_0.12" vType="DEFAULT_VEHTYPE" speedFactor="0.90" vaporized=""/>
    <tripinfo id="s4-n5_0.2" depart="9.00" departLane="OrigionS4_0" departPos="5.10" departSpeed="0.00" departDelay="0.00" arrival="214.00" arrivalLane="DestinationN5_0" arrivalPos="178.17" arrivalSpeed="10.86" duration="205.00" routeLength="3209.41" waitingTime="0.00" waitingCount="0" stopTime="0.00" timeLoss="32.80" rerouteNo="0" devices="tripinfo_s4-n5_0.2" vType="DEFAULT_VEHTYPE" speedFactor="0.83" vaporized=""/>
    <tripinfo id="w8-e4_0.2" depart="9.00" departLane="OrigionW8_0" departPos="5.10" departSpeed="0.00" departDelay="0.00" arrival="214.00" arrivalLane="DestinationE4_0" arrivalPos="384.36" arrivalSpeed="22.16" duration="205.00" routeLength="3459.08" waitingTime="21.00" waitingCount="1" stopTime="0.00" timeLoss="51.36" rerouteNo="0" devices="tripinfo_w8-e4_0.2" vType="DEFAULT_VEHTYPE" speedFactor="1.02" vaporized=""/>
    <tripinfo id="s6-w5_0.0" depart="0.00" departLane="OrigionS6_0" departPos="5.10" departSpeed="0.00" departDelay="0.00" arrival="214.00" arrivalLane="DestinationW5_0" arrivalPos="259.12" arrivalSpeed="14.23" duration="214.00" routeLength="3323.55" waitingTime="51.00" waitingCount="2" stopTime="0.00" timeLoss="93.18" rerouteNo="0" devices="tripinfo_s6-w5_0.0" vType="DEFAULT_VEHTYPE" speedFactor="1.07" vaporized=""/>
    <tripinfo id="w4-s1_0.14" depart="63.00" departLane="OrigionW4_0" departPos="5.10" departSpeed="0.00" departDelay="0.00" arrival="215.00" arrivalLane="DestinationS1_1" arrivalPos="373.48" arrivalSpeed="25.24" duration="152.00" routeLength="2089.17" waitingTime="37.00" waitingCount="2" stopTime="0.00" timeLoss="76.40" rerouteNo="0" devices="tripinfo_w4-s1_0.14" vType="DEFAULT_VEHTYPE" speedFactor="1.00" vaporized=""/>
    <tripinfo id="w4-s1_0.6" depart="27.00" departLane="OrigionW4_0" departPos="5.10" departSpeed="0.00" departDelay="0.00" arrival="215.00" arrivalLane="DestinationS1_0" arrivalPos="373.48" arrivalSpeed="21.00" duration="188.00" routeLength="2089.17" waitingTime="67.00" waitingCount="2" stopTime="0.00" timeLoss="93.53" rerouteNo="0" devices="tripinfo_w4-s1_0.6" vType="DEFAULT_VEHTYPE" speedFactor="0.80" vaporized=""/>
    <tripinfo id="e5-e1_0.4" depart="30.00" departLane="OrigionE5_0" departPos="5.10" departSpeed="0.00" departDelay="0.00" arrival="215.00" arrivalLane="DestinationE1_0" arrivalPos="250.56" arrivalSpeed="25.13" duration="185.00" routeLength="2162.05" waitingTime="53.00" waitingCount="2" stopTime="0.00" timeLoss="91.35" rerouteNo="0" devices="tripinfo_e5-e1_0.4" vType="DEFAULT_VEHTYPE" speedFactor="1.16" vaporized=""/>
    <tripinfo id="w4-s1_0.8" depart="36.00" departLane="OrigionW4_0" departPos="5.10" departSpeed="0.00" departDelay="0.00" arrival="216.00" arrivalLane="DestinationS1_0" arrivalPos="373.48" arrivalSpeed="23.64" duration="180.00" routeLength="2089.17" waitingTime="62.00" waitingCount="2" stopTime="0.00" timeLoss="101.35" rerouteNo="0" devices="tripinfo_w4-s1_0.8" vType="DEFAULT_VEHTYPE" speedFactor="0.96" vaporized=""/>
    <tripinfo id="w4-s1_0.11" depart="49.00" departLane="OrigionW4_0" departPos="5.10" departSpeed="0.00" departDelay="-0.50" arrival="218.00" arrivalLane="DestinationS1_0" arrivalPos="373.48" arrivalSpeed="25.11" duration="169.00" routeLength="2089.17" waitingTime="46.00" waitingCount="2" stopTime="0.00" timeLoss="91.22" rerouteNo="0" devices="tripinfo_w4-s1_0.11" vType="DEFAULT_VEHTYPE" speedFactor="0.98" vaporized=""/>
    <tripinfo id="e5-e1_0.5" depart="37.00" departLane="OrigionE5_0" departPos="5.10" departSpeed="0.00" departDelay="-0.50" arrival="218.00" arrivalLane="DestinationE1_0" arrivalPos="250.56" arrivalSpeed="21.30" duration="181.00" routeLength="2162.05" waitingTime="42.00" waitingCount="1" stopTime="0.00" timeLoss="69.08" rerouteNo="0" devices="tripinfo_e5-e1_0.5" vType="DEFAULT_VEHTYPE" speedFactor="0.97" vaporized=""/>
    <tripinfo id="n2-s8_0.0" depart="0.00" departLane="OrigionN2_0" departPos="5.10" departSpeed="0.00" departDelay="0.00" arrival="224.00" arrivalLane="DestinationS8_0" arrivalPos="419.24" arrivalSpeed="18.81" duration="224.00" routeLength="3729.72" waitingTime="13.00" waitingCount="3" stopTime="0.00" timeLoss="49.97" rerouteNo="0" devices="tripinfo_n2-s8_0.0" vType="DEFAULT_VEHTYPE" speedFactor="0.89" vaporized=""/>
    <tripinfo id="n2-s8_0.1" depart="7.00" departLane="OrigionN2_0" departPos="5.10" departSpeed="0.00" departDelay="-0.50" arrival="225.00" arrivalLane="DestinationS8_0" arrivalPos="419.24" arrivalSpeed="22.23" duration="218.00" routeLength="3729.72" waitingTime="9.00" waitingCount="2" stopTime="0.00" timeLoss="83.87" rerouteNo="0" devices="tripinfo_n2-s8_0.1" vType="DEFAULT_VEHTYPE" speedFactor="1.15" vaporized=""/>
    <tripinfo id="n2-s8_0.2" depart="15.00" departLane="OrigionN2_0" departPos="5.10" departSpeed="0.00" departDelay="0.00" arrival="227.00" arrivalLane="DestinationS8_0" arrivalPos="419.24" arrivalSpeed="22.08" duration="212.00" routeLength="3729.72" waitingTime="3.00" waitingCount="2" stopTime="0.00" timeLoss="63.88" rerouteNo="0" devices="tripinfo_n2-s8_0.2" vType="DEFAULT_VEHTYPE" speedFactor="1.05" vaporized=""/>
    <tripinfo id="n2-s8_0.3" depart="22.00" departLane="OrigionN2_0" departPos="5.10" departSpeed="0.00" departDelay="-0.50" arrival="228.00" arrivalLane="DestinationS8_0" arrivalPos="419.24" arrivalSpeed="21.66" duration="206.00" routeLength="3729.72" waitingTime="2.00" waitingCount="1" stopTime="0.00" timeLoss="50.84" rerouteNo="0" devices="tripinfo_n2-s8_0.3" vType="DEFAULT_VEHTYPE" speedFactor="1.00" vaporized=""/>
    <tripinfo id="n2-s8_0.4" depart="30.00" departLane="OrigionN2_0" departPos="5.10" departSpeed="0.00" departDelay="0.00" arrival="230.00" arrivalLane="DestinationS8_0" arrivalPos="419.24" arrivalSpeed="20.55" duration="200.00" routeLength="3729.72" waitingTime="1.00" waitingCount="1" stopTime="0.00" timeLoss="39.43" rerouteNo="0" devices="tripinfo_n2-s8_0.4" vType="DEFAULT_VEHTYPE" speedFactor="0.97" vaporized=""/>
    <tripinfo id="n4-w2_0.1" depart="4.00" departLane="OrigionN4_0" departPos="5.10" departSpeed="0.00" departDelay="-0.50" arrival="236.00" arrivalLane="DestinationW2_0" arrivalPos="782.62" arrivalSpeed="21.24" duration="232.00" routeLength="3590.24" waitingTime="44.00" waitingCount="2" stopTime="0.00" timeLoss="77.75" rerouteNo="0" devices="tripinfo_n4-w2_0.1" vType="DEFAULT_VEHTYPE" speedFactor="1.00" vaporized=""/>
    <tripinfo id="n4-w2_0.3" depart="13.00" departLane="OrigionN4_0" departPos="5.10" departSpeed="0.00" departDelay="-0.50" arrival="237.00" arrivalLane="DestinationW2_0" arrivalPos="782.62" arrivalSpeed="21.99" duration="224.00" routeLength="3590.24" waitingTime="37.00" waitingCount="2" stopTime="0.00" timeLoss="76.76" rerouteNo="0" devices="tripinfo_n4-w2_0.3" vType="DEFAULT_VEHTYPE" speedFactor="1.05" vaporized=""/>
    <tripinfo id="n4-w2_0.4" depart="18.00" departLane="OrigionN4_0" departPos="5.10" departSpeed="0.00" departDelay="0.00" arrival="239.00" arrivalLane="DestinationW2_0" arrivalPos="782.62" arrivalSpeed="24.48" duration="221.00" routeLength="3590.24" waitingTime="34.00" waitingCount="2" stopTime="0.00" timeLoss="84.81" rerouteNo="0" devices="tripinfo_n4-w2_0.4" vType="DEFAULT_VEHTYPE" speedFactor="1.14" vaporized=""/>
    <tripinfo id="n4-w2_0.7" depart="31.00" departLane="OrigionN4_0" departPos="5.10" departSpeed="0.00" departDelay="-0.50" arrival="240.00" arrivalLane="DestinationW2_0" arrivalPos="782.62" arrivalSpeed="23.19" duration="209.00" routeLength="3590.24" waitingTime="24.00" waitingCount="2" stopTime="0.00" timeLoss="68.58" rerouteNo="0" devices="tripinfo_n4-w2_0.7" vType="DEFAULT_VEHTYPE" speedFactor="1.10" vaporized=""/>
    <tripinfo id="n4-w2_0.9" depart="40.00" departLane="OrigionN4_0" departPos="5.10" departSpeed="0.00" departDelay="-0.50" arrival="242.00" arrivalLane="DestinationW2_0" arrivalPos="782.62" arrivalSpeed="23.78" duration="202.00" routeLength="3590.24" waitingTime="17.00" waitingCount="2" stopTime="0.00" timeLoss="57.65" rerouteNo="0" devices="tripinfo_n4-w2_0.9" vType="DEFAULT_VEHTYPE" speedFactor="1.07" vaporized=""/>
    <tripinfo id="s1-w4_0.14" depart="63.00" departLane="OrigionS1_0" departPos="5.10" departSpeed="0.00" departDelay="0.00" arrival="250.00" arrivalLane="DestinationW4_0" arrivalPos="242.47" arrivalSpeed="28.73" duration="187.00" routeLength="2089.17" waitingTime="72.00" waitingCount="4" stopTime="0.00" timeLoss="115.06" rerouteNo="0" devices="tripinfo_s1-w4_0.14" vType="DEFAULT_VEHTYPE" speedFactor="1.05" vaporized=""/>
    <tripinfo id="s1-w4_0.15" depart="67.00" departLane="OrigionS1_0" departPos="5.10" departSpeed="0.00" departDelay="-0.50" arrival="252.00" arrivalLane="DestinationW4_1" arrivalPos="242.47" arrivalSpeed="32.04" duration="185.00" routeLength="2089.17" waitingTime="74.00" waitingCount="3" stopTime="0.00" timeLoss="119.39" rerouteNo="0" devices="tripinfo_s1-w4_0.15" vType="DEFAULT_VEHTYPE" speedFactor="1.16" vaporized=""/>
    <tripinfo id="s1-w4_0.13" depart="58.00" departLane="OrigionS1_0" departPos="5.10" departSpeed="0.00" departDelay="-0.50" arrival="253.00" arrivalLane="DestinationW4_0" arrivalPos="242.47" arrivalSpeed="25.88" duration="195.00" routeLength="2089.17" waitingTime="78.00" waitingCount="3" stopTime="0.00" timeLoss="114.07" rerouteNo="0" devices="tripinfo_s1-w4_0.13" vType="DEFAULT_VEHTYPE" speedFactor="0.93" vaporized=""/>
    <tripinfo id="s1-w4_0.17" depart="76.00" departLane="OrigionS1_0" departPos="5.10" departSpeed="0.00" departDelay="-0.50" arrival="254.00" arrivalLane="DestinationW4_1" arrivalPos="242.47" arrivalSpeed="29.93" duration="178.00" routeLength="2089.17" waitingTime="65.00" waitingCount="3" stopTime="0.00" timeLoss="108.03" rerouteNo="0" devices="tripinfo_s1-w4_0.17" vType="DEFAULT_VEHTYPE" speedFactor="1.08" vaporized=""/>
    <tripinfo id="s1-w4_0.16" depart="72.00" departLane="OrigionS1_0" departPos="5.10" departSpeed="0.00" departDelay="0.00" arrival="255.00" arrivalLane="DestinationW4_0" arrivalPos="242.47" arrivalSpeed="28.65" duration="183.00" routeLength="2089.17" waitingTime="63.00" waitingCount="3" stopTime="0.00" timeLoss="109.60" rerouteNo="0" devices="tripinfo_s1-w4_0.16" vType="DEFAULT_VEHTYPE" speedFactor="1.04" vaporized=""/>
    <tripinfo id="s1-w4_0.18" depart="81.00" departLane="OrigionS1_0" departPos="5.10" departSpeed="0.00" departDelay="0.00" arrival="256.00" arrivalLane="DestinationW4_0" arrivalPos="242.47" arrivalSpeed="28.38" duration="175.00" routeLength="2089.17" waitingTime="59.00" waitingCount="2" stopTime="0.00" timeLoss="103.80" rerouteNo="0" devices="tripinfo_s1-w4_0.18" vType="DEFAULT_VEHTYPE" speedFactor="1.06" vaporized=""/>
    <tripinfo id="s1-w4_0.19" depart="85.00" departLane="OrigionS1_0" departPos="5.10" departSpeed="0.00" departDelay="-0.50" arrival="257.00" arrivalLane="DestinationW4_1" arrivalPos="242.47" arrivalSpeed="27.39" duration="172.00" routeLength="2089.17" waitingTime="57.00" waitingCount="2" stopTime="0.00" timeLoss="97.19" rerouteNo="0" devices="tripinfo_s1-w4_0.19" vType="DEFAULT_VEHTYPE" speedFactor="1.01" vaporized=""/>
    <tripinfo id="s1-w4_0.20" depart="90.00" departLane="OrigionS1_0" departPos="5.10" departSpeed="0.00" departDelay="0.00" arrival="258.00" arrivalLane="DestinationW4_0" arrivalPos="242.47" arrivalSpeed="26.97" duration="168.00" routeLength="2089.17" waitingTime="56.00" waitingCount="2" stopTime="0.00" timeLoss="97.48" rerouteNo="0" devices="tripinfo_s1-w4_0.20" vType="DEFAULT_VEHTYPE" speedFactor="1.08" vaporized=""/>
    <tripinfo id="e3-s5_0.8" depart="63.00" departLane="OrigionE3_0" departPos="5.10" departSpeed="0.00" departDelay="3.00" arrival="261.00" arrivalLane="DestinationS5_0" arrivalPos="746.72" arrivalSpeed="20.94" duration="198.00" routeLength="3631.94" waitingTime="19.00" waitingCount="2" stopTime="0.00" timeLoss="57.00" rerouteNo="0" devices="tripinfo_e3-s5_0.8" vType="DEFAULT_VEHTYPE" speedFactor="0.98" vaporized=""/>
    <tripinfo id="w4-s1_0.16" depart="72.00" departLane="OrigionW4_0" departPos="5.10" departSpeed="0.00" departDelay="0.00" arrival="264.00" arrivalLane="DestinationS1_1" arrivalPos="373.48" arrivalSpeed="31.31" duration="192.00" routeLength="2089.17" waitingTime="79.00" waitingCount="2" stopTime="0.00" timeLoss="126.33" rerouteNo="0" devices="tripinfo_w4-s1_0.16" vType="DEFAULT_VEHTYPE" speedFactor="1.16" vaporized=""/>
    <tripinfo id="s4-n5_0.3" depart="13.00" departLane="OrigionS4_0" departPos="5.10" departSpeed="0.00" departDelay="-0.50" arrival="264.00" arrivalLane="DestinationN5_0" arrivalPos="178.17" arrivalSpeed="14.13" duration="251.00" routeLength="3209.41" waitingTime="51.00" waitingCount="1" stopTime="0.00" timeLoss="116.60" rerouteNo="0" devices="tripinfo_s4-n5_0.3" vType="DEFAULT_VEHTYPE" speedFactor="1.06" vaporized=""/>
    <tripinfo id="w4-s1_0.17" depart="76.00" departLane="OrigionW4_0" departPos="5.10" departSpeed="0.00" departDelay="-0.50" arrival="270.00" arrivalLane="DestinationS1_1" arrivalPos="373.48" arrivalSpeed="25.68" duration="194.00" routeLength="2089.17" waitingTime="77.00" waitingCount="2" stopTime="0.00" timeLoss="114.84" rerouteNo="0" devices="tripinfo_w4-s1_0.17" vType="DEFAULT_VEHTYPE" speedFactor="0.96" vaporized=""/>
    <tripinfo id="e3-s5_0.3" depart="25.00" departLane="OrigionE3_0" departPos="5.10" departSpeed="0.00" departDelay="2.50" arrival="270.00" arrivalLane="DestinationS5_0" arrivalPos="746.72" arrivalSpeed="17.10" duration="245.00" routeLength="3631.94" waitingTime="40.00" waitingCount="3" stopTime="0.00" timeLoss="74.63" rerouteNo="0" devices="tripinfo_e3-s5_0.3" vType="DEFAULT_VEHTYPE" speedFactor="0.81" vaporized=""/>
    <tripinfo id="w4-s1_0.13" depart="58.00" departLane="OrigionW4_0" departPos="5.10" departSpeed="0.00" departDelay="-0.50" arrival="271.00" arrivalLane="DestinationS1_0" arrivalPos="373.48" arrivalSpeed="23.53" duration="213.00" routeLength="2089.17" waitingTime="86.00" waitingCount="3" stopTime="0.00" timeLoss="126.12" rerouteNo="0" devices="tripinfo_w4-s1_0.13" vType="DEFAULT_VEHTYPE" speedFactor="0.87" vaporized=""/>